data_phase_Al2O3_0
_pd_block_id Al2O3_0
_pd_block_diffractogram_id pattern_0

_pd_phase_name Al2O3_0
_cell_length_a 4.759296
_cell_length_b 4.759296
_cell_length_c 12.99236
_cell_angle_alpha 90
_cell_angle_beta 90
_cell_angle_gamma 120
_cell_volume 254.8615
_symmetry_space_group_name_H-M R-3cH

loop_
_atom_site_label
_atom_site_type_symbol
_atom_site_site_symmetry_multiplicity
_atom_site_fract_x
_atom_site_fract_y
_atom_site_fract_z
_atom_site_occupancy
_atom_site_B_iso_or_equiv
Al1 Al+3  12 0 0 0.148 1 0.3635723
O1 O-2  18 0.306 0 0.25 1 0.3635723

loop_
_refln_index_h
_refln_index_k
_refln_index_l
_refln_d_spacing
_refln_F_squared_calc
_refln_F_squared_meas
1   0    -2   3.480268   0.77   0.78
1   0     4   2.551134   2.28   2.38
2  -1     0   2.379648   1.17   1.18
0   0     6   2.165394   0.03   0.03
2  -1     3   2.08555    4.2    4.34
2   0     2   1.964358   0.07   0.07
2   0    -4   1.740134   3.15   3.08
2  -1     6   1.601566   7.7    7.54
3  -1     1   1.546766   0.21   0.22
3  -1    -2   1.514895   0.3    0.3
1   0    -8   1.510981   0.65   0.66
3  -1     4   1.404642   4.18   4.19
3   0     0   1.373891   6.67   6.66
3  -1    -5   1.336122   0.15   0.14
2   0     8   1.275567   0.19   0.2
1   0    10   1.239131   2.46   2.47
2  -1     9   1.234242   1.27   1.29
3  -1     7   1.193242   0.11   0.12
4  -2     0   1.189824   1.05   1.07
3   0    -6   1.160089   0.07   0.08
3   0     6   1.160089   0.07   0.08
4  -2     3   1.147312   0.86   0.84
4  -1    -1   1.138747   0.05   0.05
4  -1     2   1.125847   0.68   0.7
3  -1    -8   1.124238   0.47   0.46
2   0   -10   1.099054   1.39   1.38
0   0    12   1.082697   0.35   0.35
4  -1    -4   1.078313   1.67   1.65
4  -1     5   1.046366   0.04   0.04
4  -2     6   1.042775   3.45   3.47
4   0    -2   1.017695   0.46   0.47
3  -1    10   0.997776   2.6    2.68
2  -1    12   0.985489   0.05   0.05
4   0     4   0.982179   0.46   0.49
4  -1    -7   0.973345   0.03   0.03
5  -2     1   0.943082   0.09   0.09
3  -1   -11   0.941192   0.06   0.07
5  -2    -2   0.935716   0.03   0.03
4  -1     8   0.934791   0.73   0.78
4  -2     9   0.918155   0.5    0.51
5  -2     4   0.907887   2.39   2.43
1   0   -14   0.905361   0.81   0.85
5  -1     0   0.899422   1.33   1.4
5  -2    -5   0.888572   0.08   0.09
5  -1    -3   0.880632   0.39   0.4
5  -1     3   0.880632   0.39   0.4
4   0    -8   0.870067   0.47   0.49
4  -1   -10   0.858235   2.58   2.64
3   0   -12   0.850378   0.51   0.51
3   0    12   0.850378   0.51   0.51
2   0    14   0.846187   0.98   1.05
5  -2     7   0.842538   0.07   0.07
3  -1    13   0.84119    0.05   0.05
5  -1    -6   0.83062    1.84   1.89
5  -1     6   0.83062    1.84   1.89
4  -1    11   0.821424   0.02   0.02
5   0     2   0.817777   0.01   0.01
5  -2    -8   0.817159   0.09   0.09
2  -1    15   0.813918   0.47   0.49
4   0    10   0.807333   1.36   1.43
4  -2    12   0.800783   0.02   0.03
5   0    -4   0.799004   0.88   0.94
3  -1   -14   0.79728    1.47   1.61
1   0    16   0.796708   0.3    0.33
6  -3     0   0.793216   1.73   1.8
6  -3     3   0.780237   0      0
6  -2    -1   0.777527   0.1    0.11
6  -2     2   0.773383   0.11   0.11
5  -2    10   0.764532   0.94   0.99
5  -1    -9   0.763379   0.29   0.3
5  -1     9   0.763379   0.29   0.3



data_phase_Si_0
_pd_block_id Si_0
_pd_block_diffractogram_id pattern_0
_pd_phase_name Si_0
_cell_length_a 5.431025
_cell_length_b 5.431025
_cell_length_c 5.431025
_cell_angle_alpha 90
_cell_angle_beta 90
_cell_angle_gamma 90
_cell_volume 160.1937
_symmetry_space_group_name_H-M Fd-3mS
loop_
_atom_site_label
_atom_site_type_symbol
_atom_site_site_symmetry_multiplicity
_atom_site_fract_x
_atom_site_fract_y
_atom_site_fract_z
_atom_site_occupancy
_atom_site_B_iso_or_equiv
Si1 Si   8 0 0 0 1 0.3872382
loop_
_refln_index_h
_refln_index_k
_refln_index_l
_refln_d_spacing
_refln_F_squared_calc
_refln_F_squared_meas
1  1  1  3.135604  2.9   3
2  2  0  1.920157  5.78  5.71
3  1  1  1.637516  4.99  4.96
2  2  2  1.567802  0     0
4  0  0  1.357756  2.05  2.04
3  3  1  1.245963  3.68  3.83
4  2  2  1.108603  6.22  6.35
3  3  3  1.045201  0.94  0.95
5  1  1  1.045201  2.82  2.85
4  4  0  0.960079  2.4   2.45
5  3  1  0.918011  4.38  4.39
4  4  2  0.905171  0     0
6  2  0  0.85872   3.76  3.69
5  3  3  0.828224  1.72  1.82
6  2  2  0.818758  0     0
4  4  4  0.783901  0.99  1.01




data_pattern_xray_0
_pd_block_id pattern_0
loop_
_pd_phase_block_id
_pd_phase_mass_%
Al2O3_0	71.8628
Si_0	28.1372
_diffrn_ambient_temperature      30.00
loop_
_pd_meas_2theta_scan
_pd_meas_intensity_total
_pd_proc_ls_weight
_pd_calc_intensity_total
_pd_proc_intensity_bkg_calc
   5.001000      43.364000       0.040297      25.962702      25.962702  
   5.004000      38.007000       0.050546      26.168296      26.168296  
   5.007000      38.318000       0.046520      26.372352      26.372352  
  64.995000      15.051000       0.127242      14.962052      14.710515  
  64.998000      15.175000       0.120778      14.961416      14.706974  
  65.001000      22.783000       0.087726      14.960849      14.703426  
