data_overall
_diffrn_radiation_wavelength  0.8257653


data_phase_Al2O3_0
_pd_block_id Al2O3_0
_pd_block_diffractogram_id pattern_0

_pd_phase_name Al2O3_0
_cell_length_a 4.759296
_cell_length_b 4.759296
_cell_length_c 12.99236
_cell_angle_alpha 90
_cell_angle_beta 90
_cell_angle_gamma 120
_cell_volume 254.8615
_symmetry_space_group_name_H-M R-3cH
loop_
	_symmetry_equiv_pos_as_xyz
	 'x, y, z '
	 '-x, -y, -z '
	 '-x+y, -x, z '
	 '-x+y, y, z+1/2 '
	 '-y, -x, z+1/2 '
	 '-y, x-y, z '
	 'y, -x+y, -z '
	 'y, x, -z+1/2 '
	 'x-y, -y, -z+1/2 '
	 'x-y, x, -z '
	 '-x, -x+y, -z+1/2 '
	 'x, x-y, z+1/2 '
	 'x-1/3, y+1/3, z+1/3 '
	 '-x-1/3, -y+1/3, -z+1/3 '
	 '-x+y-1/3, -x+1/3, z+1/3 '
	 '-x+y-1/3, y+1/3, z-1/6 '
	 '-y-1/3, -x+1/3, z-1/6 '
	 '-y-1/3, x-y+1/3, z+1/3 '
	 'y-1/3, -x+y+1/3, -z+1/3 '
	 'y-1/3, x+1/3, -z-1/6 '
	 'x-y-1/3, -y+1/3, -z-1/6 '
	 'x-y-1/3, x+1/3, -z+1/3 '
	 '-x-1/3, -x+y+1/3, -z-1/6 '
	 'x-1/3, x-y+1/3, z-1/6 '
	 'x+1/3, y-1/3, z-1/3 '
	 '-x+1/3, -y-1/3, -z-1/3 '
	 '-x+y+1/3, -x-1/3, z-1/3 '
	 '-x+y+1/3, y-1/3, z+1/6 '
	 '-y+1/3, -x-1/3, z+1/6 '
	 '-y+1/3, x-y-1/3, z-1/3 '
	 'y+1/3, -x+y-1/3, -z-1/3 '
	 'y+1/3, x-1/3, -z+1/6 '
	 'x-y+1/3, -y-1/3, -z+1/6 '
	 'x-y+1/3, x-1/3, -z-1/3 '
	 '-x+1/3, -x+y-1/3, -z+1/6 '
	 'x+1/3, x-y-1/3, z+1/6 '
loop_
_atom_site_label
_atom_site_type_symbol
_atom_site_site_symmetry_multiplicity
_atom_site_fract_x
_atom_site_fract_y
_atom_site_fract_z
_atom_site_occupancy
_atom_site_B_iso_or_equiv
Al1 Al+3  12 0 0 0.148 1 0.3635723
O1 O-2  18 0.306 0 0.25 1 0.3635723

loop_
_refln_index_h
_refln_index_k
_refln_index_l
_refln_d_spacing
_refln_F_squared_calc
_refln_F_squared_meas
   0    0    6   2.165394         0.03         0.03
   0    0   12   1.082697         0.35         0.35
   1    0  -14   0.905361         0.81         0.85
   1    0   -8   1.510981         0.65         0.66
   1    0   -2   3.480268         0.77         0.78
   1    0    4   2.551134         2.28         2.38
   1    0   10   1.239131         2.46         2.47
   1    0   16   0.796708         0.30         0.33
   2   -1    0   2.379648         1.17         1.18
   2   -1    3   2.085550         4.20         4.34
   2   -1    6   1.601566         7.70         7.54
   2   -1    9   1.234242         1.27         1.29
   2   -1   12   0.985489         0.05         0.05
   2   -1   15   0.813918         0.47         0.49
   2    0  -10   1.099054         1.39         1.38
   2    0   -4   1.740134         3.15         3.08
   2    0    2   1.964358         0.07         0.07
   2    0    8   1.275567         0.19         0.20
   2    0   14   0.846187         0.98         1.05
   3   -1  -14   0.797280         1.47         1.61
   3   -1  -11   0.941192         0.06         0.07
   3   -1   -8   1.124238         0.47         0.46
   3   -1   -5   1.336122         0.15         0.14
   3   -1   -2   1.514895         0.30         0.30
   3   -1    1   1.546766         0.21         0.22
   3   -1    4   1.404642         4.18         4.19
   3   -1    7   1.193242         0.11         0.12
   3   -1   10   0.997776         2.60         2.68
   3   -1   13   0.841190         0.05         0.05
   3    0  -12   0.850378         0.51         0.51
   3    0   -6   1.160089         0.07         0.08
   3    0    0   1.373891         6.67         6.66
   3    0    6   1.160089         0.07         0.08
   3    0   12   0.850378         0.51         0.51
   4   -2    0   1.189824         1.05         1.07
   4   -2    3   1.147312         0.86         0.84
   4   -2    6   1.042775         3.45         3.47
   4   -2    9   0.918155         0.50         0.51
   4   -2   12   0.800783         0.02         0.03
   4   -1  -10   0.858235         2.58         2.64
   4   -1   -7   0.973345         0.03         0.03
   4   -1   -4   1.078313         1.67         1.65
   4   -1   -1   1.138747         0.05         0.05
   4   -1    2   1.125847         0.68         0.70
   4   -1    5   1.046366         0.04         0.04
   4   -1    8   0.934791         0.73         0.78
   4   -1   11   0.821424         0.02         0.02
   4    0   -8   0.870067         0.47         0.49
   4    0   -2   1.017695         0.46         0.47
   4    0    4   0.982179         0.46         0.49
   4    0   10   0.807333         1.36         1.43
   5   -2   -8   0.817159         0.09         0.09
   5   -2   -5   0.888572         0.08         0.09
   5   -2   -2   0.935716         0.03         0.03
   5   -2    1   0.943082         0.09         0.09
   5   -2    4   0.907887         2.39         2.43
   5   -2    7   0.842538         0.07         0.07
   5   -2   10   0.764532         0.94         0.99
   5   -1   -9   0.763379         0.29         0.30
   5   -1   -6   0.830620         1.84         1.89
   5   -1   -3   0.880632         0.39         0.40
   5   -1    0   0.899422         1.33         1.40
   5   -1    3   0.880632         0.39         0.40
   5   -1    6   0.830620         1.84         1.89
   5   -1    9   0.763379         0.29         0.30
   5    0   -4   0.799004         0.88         0.94
   5    0    2   0.817777         0.01         0.01
   6   -3    0   0.793216         1.73         1.80
   6   -3    3   0.780237         0.00         0.00
   6   -2   -1   0.777527         0.10         0.11
   6   -2    2   0.773383         0.11         0.11



data_phase_Si_0
_pd_block_id Si_0
_pd_block_diffractogram_id pattern_0

_pd_phase_name Si_0
_cell_length_a 5.431025
_cell_length_b 5.431025
_cell_length_c 5.431025
_cell_angle_alpha 90
_cell_angle_beta 90
_cell_angle_gamma 90
_cell_volume 160.1937
_symmetry_space_group_name_H-M Fd-3mS
loop_
	_symmetry_equiv_pos_as_xyz
	 'x, y, z '
	 '-x, z+1/2, -y+1/2 '
	 '-x+1/4, -y+1/4, -z+1/4 '
	 '-x+1/4, -z+1/4, -y+1/4 '
	 '-x+1/2, -z, y+1/2 '
	 '-x+1/2, y+1/2, -z '
	 '-x-1/4, z-1/4, y+1/4 '
	 '-x-1/4, y+1/4, z-1/4 '
	 '-y, -z+1/2, x+1/2 '
	 '-y, x+1/2, -z+1/2 '
	 '-y+1/4, -x+1/4, -z+1/4 '
	 '-y+1/4, -z+1/4, -x+1/4 '
	 '-y+1/2, -x, z+1/2 '
	 '-y+1/2, z+1/2, -x '
	 '-y-1/4, z+1/4, x-1/4 '
	 '-y-1/4, x-1/4, z+1/4 '
	 '-z, -x+1/2, y+1/2 '
	 '-z, y+1/2, -x+1/2 '
	 '-z+1/4, -x+1/4, -y+1/4 '
	 '-z+1/4, -y+1/4, -x+1/4 '
	 '-z+1/2, -y, x+1/2 '
	 '-z+1/2, x+1/2, -y '
	 '-z-1/4, y-1/4, x+1/4 '
	 '-z-1/4, x+1/4, y-1/4 '
	 'z, y, x '
	 'z, x, y '
	 'z+1/4, -y-1/4, x-1/4 '
	 'z+1/4, x-1/4, -y-1/4 '
	 'z+1/2, -x, -y+1/2 '
	 'z+1/2, -y+1/2, -x '
	 'z-1/4, -x-1/4, y+1/4 '
	 'z-1/4, y+1/4, -x-1/4 '
	 'y, z, x '
	 'y, x, z '
	 'y+1/4, -x-1/4, z-1/4 '
	 'y+1/4, z-1/4, -x-1/4 '
	 'y+1/2, -x+1/2, -z '
	 'y+1/2, -z, -x+1/2 '
	 'y-1/4, -z-1/4, x+1/4 '
	 'y-1/4, x+1/4, -z-1/4 '
	 'x, z, y '
	 '-x, -y+1/2, z+1/2 '
	 'x+1/4, -z-1/4, y-1/4 '
	 'x+1/4, y-1/4, -z-1/4 '
	 'x+1/2, -y, -z+1/2 '
	 'x+1/2, -z+1/2, -y '
	 'x-1/4, -y-1/4, z+1/4 '
	 'x-1/4, z+1/4, -y-1/4 '
	 'x+1/2, y+1/2, z '
	 '-x+1/2, z, -y+1/2 '
	 '-x-1/4, -y-1/4, -z+1/4 '
	 '-x-1/4, -z-1/4, -y+1/4 '
	 '-x, -z+1/2, y+1/2 '
	 '-x, y, -z '
	 '-x+1/4, z+1/4, y+1/4 '
	 '-x+1/4, y-1/4, z-1/4 '
	 '-y+1/2, -z, x+1/2 '
	 '-y+1/2, x, -z+1/2 '
	 '-y-1/4, -x-1/4, -z+1/4 '
	 '-y-1/4, -z-1/4, -x+1/4 '
	 '-y, -x+1/2, z+1/2 '
	 '-y, z, -x '
	 '-y+1/4, z-1/4, x-1/4 '
	 '-y+1/4, x+1/4, z+1/4 '
	 '-z+1/2, -x, y+1/2 '
	 '-z+1/2, y, -x+1/2 '
	 '-z-1/4, -x-1/4, -y+1/4 '
	 '-z-1/4, -y-1/4, -x+1/4 '
	 '-z, -y+1/2, x+1/2 '
	 '-z, x, -y '
	 '-z+1/4, y+1/4, x+1/4 '
	 '-z+1/4, x-1/4, y-1/4 '
	 'z+1/2, y+1/2, x '
	 'z+1/2, x+1/2, y '
	 'z-1/4, -y+1/4, x-1/4 '
	 'z-1/4, x+1/4, -y-1/4 '
	 'z, -x+1/2, -y+1/2 '
	 'z, -y, -x '
	 'z+1/4, -x+1/4, y+1/4 '
	 'z+1/4, y-1/4, -x-1/4 '
	 'y+1/2, z+1/2, x '
	 'y+1/2, x+1/2, z '
	 'y-1/4, -x+1/4, z-1/4 '
	 'y-1/4, z+1/4, -x-1/4 '
	 'y, -x, -z '
	 'y, -z+1/2, -x+1/2 '
	 'y+1/4, -z+1/4, x+1/4 '
	 'y+1/4, x-1/4, -z-1/4 '
	 'x+1/2, z+1/2, y '
	 '-x+1/2, -y, z+1/2 '
	 'x-1/4, -z+1/4, y-1/4 '
	 'x-1/4, y+1/4, -z-1/4 '
	 'x, -y+1/2, -z+1/2 '
	 'x, -z, -y '
	 'x+1/4, -y+1/4, z+1/4 '
	 'x+1/4, z-1/4, -y-1/4 '
	 'x+1/2, y, z+1/2 '
	 '-x+1/2, z+1/2, -y '
	 '-x-1/4, -y+1/4, -z-1/4 '
	 '-x-1/4, -z+1/4, -y-1/4 '
	 '-x, -z, y '
	 '-x, y+1/2, -z+1/2 '
	 '-x+1/4, z-1/4, y-1/4 '
	 '-x+1/4, y+1/4, z+1/4 '
	 '-y+1/2, -z+1/2, x '
	 '-y+1/2, x+1/2, -z '
	 '-y-1/4, -x+1/4, -z-1/4 '
	 '-y-1/4, -z+1/4, -x-1/4 '
	 '-y, -x, z '
	 '-y, z+1/2, -x+1/2 '
	 '-y+1/4, z+1/4, x+1/4 '
	 '-y+1/4, x-1/4, z-1/4 '
	 '-z+1/2, -x+1/2, y '
	 '-z+1/2, y+1/2, -x '
	 '-z-1/4, -x+1/4, -y-1/4 '
	 '-z-1/4, -y+1/4, -x-1/4 '
	 '-z, -y, x '
	 '-z, x+1/2, -y+1/2 '
	 '-z+1/4, y-1/4, x-1/4 '
	 '-z+1/4, x+1/4, y+1/4 '
	 'z+1/2, y, x+1/2 '
	 'z+1/2, x, y+1/2 '
	 'z-1/4, -y-1/4, x+1/4 '
	 'z-1/4, x-1/4, -y+1/4 '
	 'z, -x, -y '
	 'z, -y+1/2, -x+1/2 '
	 'z+1/4, -x-1/4, y-1/4 '
	 'z+1/4, y+1/4, -x+1/4 '
	 'y+1/2, z, x+1/2 '
	 'y+1/2, x, z+1/2 '
	 'y-1/4, -x-1/4, z+1/4 '
	 'y-1/4, z-1/4, -x+1/4 '
	 'y, -x+1/2, -z+1/2 '
	 'y, -z, -x '
	 'y+1/4, -z-1/4, x-1/4 '
	 'y+1/4, x+1/4, -z+1/4 '
	 'x+1/2, z, y+1/2 '
	 '-x+1/2, -y+1/2, z '
	 'x-1/4, -z-1/4, y+1/4 '
	 'x-1/4, y-1/4, -z+1/4 '
	 'x, -y, -z '
	 'x, -z+1/2, -y+1/2 '
	 'x+1/4, -y-1/4, z-1/4 '
	 'x+1/4, z+1/4, -y+1/4 '
	 'x, y+1/2, z+1/2 '
	 '-x, z, -y '
	 '-x+1/4, -y-1/4, -z-1/4 '
	 '-x+1/4, -z-1/4, -y-1/4 '
	 '-x+1/2, -z+1/2, y '
	 '-x+1/2, y, -z+1/2 '
	 '-x-1/4, z+1/4, y-1/4 '
	 '-x-1/4, y-1/4, z+1/4 '
	 '-y, -z, x '
	 '-y, x, -z '
	 '-y+1/4, -x-1/4, -z-1/4 '
	 '-y+1/4, -z-1/4, -x-1/4 '
	 '-y+1/2, -x+1/2, z '
	 '-y+1/2, z, -x+1/2 '
	 '-y-1/4, z-1/4, x+1/4 '
	 '-y-1/4, x+1/4, z-1/4 '
	 '-z, -x, y '
	 '-z, y, -x '
	 '-z+1/4, -x-1/4, -y-1/4 '
	 '-z+1/4, -y-1/4, -x-1/4 '
	 '-z+1/2, -y+1/2, x '
	 '-z+1/2, x, -y+1/2 '
	 '-z-1/4, y+1/4, x-1/4 '
	 '-z-1/4, x-1/4, y+1/4 '
	 'z, y+1/2, x+1/2 '
	 'z, x+1/2, y+1/2 '
	 'z+1/4, -y+1/4, x+1/4 '
	 'z+1/4, x+1/4, -y+1/4 '
	 'z+1/2, -x+1/2, -y '
	 'z+1/2, -y, -x+1/2 '
	 'z-1/4, -x+1/4, y-1/4 '
	 'z-1/4, y-1/4, -x+1/4 '
	 'y, z+1/2, x+1/2 '
	 'y, x+1/2, z+1/2 '
	 'y+1/4, -x+1/4, z+1/4 '
	 'y+1/4, z+1/4, -x+1/4 '
	 'y+1/2, -x, -z+1/2 '
	 'y+1/2, -z+1/2, -x '
	 'y-1/4, -z+1/4, x-1/4 '
	 'y-1/4, x-1/4, -z+1/4 '
	 'x, z+1/2, y+1/2 '
	 '-x, -y, z '
	 'x+1/4, -z+1/4, y+1/4 '
	 'x+1/4, y+1/4, -z+1/4 '
	 'x+1/2, -y+1/2, -z '
	 'x+1/2, -z, -y+1/2 '
	 'x-1/4, -y+1/4, z-1/4 '
	 'x-1/4, z-1/4, -y+1/4 '
loop_
_atom_site_label
_atom_site_type_symbol
_atom_site_site_symmetry_multiplicity
_atom_site_fract_x
_atom_site_fract_y
_atom_site_fract_z
_atom_site_occupancy
_atom_site_B_iso_or_equiv
Si1 Si   8 0 0 0 1 0.3872382

loop_
_refln_index_h
_refln_index_k
_refln_index_l
_refln_d_spacing
_refln_F_squared_calc
_refln_F_squared_meas
   1    1    1    3.135604         2.90         3.00
   2    2    0    1.920157         5.78         5.71
   2    2    2    1.567802         0.00         0.00
   3    1    1    1.637516         4.99         4.96
   3    3    1    1.245963         3.68         3.83
   3    3    3    1.045201         0.94         0.95
   4    0    0    1.357756         2.05         2.04
   4    2    2    1.108603         6.22         6.35
   4    4    0    0.960079         2.40         2.45
   4    4    2    0.905171         0.00         0.00
   4    4    4    0.783901         0.99         1.01
   5    1    1    1.045201         2.82         2.85
   5    3    1    0.918011         4.38         4.39
   5    3    3    0.828224         1.72         1.82
   6    2    0    0.858720         3.76         3.69
   6    2    2    0.818758         0.00         0.00


data_phase_Al2O3_1
_pd_block_id Al2O3_1
_pd_block_diffractogram_id pattern_1

_pd_phase_name Al2O3_1
_cell_length_a 4.759807
_cell_length_b 4.759807
_cell_length_c 12.99405
_cell_angle_alpha 90
_cell_angle_beta 90
_cell_angle_gamma 120
_cell_volume 254.9494
_symmetry_space_group_name_H-M R-3cH
loop_
	_symmetry_equiv_pos_as_xyz
	 'x, y, z '
	 '-x, -y, -z '
	 '-x+y, -x, z '
	 '-x+y, y, z+1/2 '
	 '-y, -x, z+1/2 '
	 '-y, x-y, z '
	 'y, -x+y, -z '
	 'y, x, -z+1/2 '
	 'x-y, -y, -z+1/2 '
	 'x-y, x, -z '
	 '-x, -x+y, -z+1/2 '
	 'x, x-y, z+1/2 '
	 'x-1/3, y+1/3, z+1/3 '
	 '-x-1/3, -y+1/3, -z+1/3 '
	 '-x+y-1/3, -x+1/3, z+1/3 '
	 '-x+y-1/3, y+1/3, z-1/6 '
	 '-y-1/3, -x+1/3, z-1/6 '
	 '-y-1/3, x-y+1/3, z+1/3 '
	 'y-1/3, -x+y+1/3, -z+1/3 '
	 'y-1/3, x+1/3, -z-1/6 '
	 'x-y-1/3, -y+1/3, -z-1/6 '
	 'x-y-1/3, x+1/3, -z+1/3 '
	 '-x-1/3, -x+y+1/3, -z-1/6 '
	 'x-1/3, x-y+1/3, z-1/6 '
	 'x+1/3, y-1/3, z-1/3 '
	 '-x+1/3, -y-1/3, -z-1/3 '
	 '-x+y+1/3, -x-1/3, z-1/3 '
	 '-x+y+1/3, y-1/3, z+1/6 '
	 '-y+1/3, -x-1/3, z+1/6 '
	 '-y+1/3, x-y-1/3, z-1/3 '
	 'y+1/3, -x+y-1/3, -z-1/3 '
	 'y+1/3, x-1/3, -z+1/6 '
	 'x-y+1/3, -y-1/3, -z+1/6 '
	 'x-y+1/3, x-1/3, -z-1/3 '
	 '-x+1/3, -x+y-1/3, -z+1/6 '
	 'x+1/3, x-y-1/3, z+1/6 '
loop_
_atom_site_label
_atom_site_type_symbol
_atom_site_site_symmetry_multiplicity
_atom_site_fract_x
_atom_site_fract_y
_atom_site_fract_z
_atom_site_occupancy
_atom_site_B_iso_or_equiv
Al1 Al+3  12 0 0 0.148 1 0.3470689
O1 O-2  18 0.306 0 0.25 1 0.3470689


loop_
_refln_index_h
_refln_index_k
_refln_index_l
_refln_d_spacing
_refln_F_squared_calc
_refln_F_squared_meas
   0    0    6   2.165675         0.03         0.03
   0    0   12   1.082838         0.34         0.35
   1    0  -14   0.905477         0.81         0.83
   1    0   -8   1.511173         0.65         0.66
   1    0   -2   3.480664         0.77         0.78
   1    0    4   2.551443         2.29         2.35
   1    0   10   1.239290         2.46         2.48
   1    0   16   0.796811         0.30         0.32
   2   -1    0   2.379904         1.18         1.19
   2   -1    3   2.085785         4.17         4.33
   2   -1    6   1.601757         7.68         7.54
   2   -1    9   1.234394         1.26         1.29
   2   -1   12   0.985613         0.05         0.05
   2   -1   15   0.814021         0.47         0.48
   2    0  -10   1.099190         1.39         1.35
   2    0   -4   1.740332         3.15         3.06
   2    0    2   1.964573         0.07         0.07
   2    0    8   1.275721         0.19         0.20
   2    0   14   0.846294         0.98         1.02
   3   -1  -14   0.797379         1.46         1.56
   3   -1  -11   0.941306         0.06         0.07
   3   -1   -8   1.124371         0.46         0.46
   3   -1   -5   1.336274         0.15         0.15
   3   -1   -2   1.515059         0.30         0.30
   3   -1    1   1.546933         0.21         0.22
   3   -1    4   1.404799         4.18         4.12
   3   -1    7   1.193381         0.11         0.12
   3   -1   10   0.997896         2.59         2.65
   3   -1   13   0.841294         0.05         0.05
   3    0  -12   0.850481         0.51         0.51
   3    0   -6   1.160221         0.07         0.07
   3    0    0   1.374038         6.65         6.70
   3    0    6   1.160221         0.07         0.07
   3    0   12   0.850481         0.51         0.51
   4   -2    0   1.189952         1.05         1.03
   4   -2    3   1.147437         0.86         0.85
   4   -2    6   1.042892         3.44         3.46
   4   -2    9   0.918262         0.50         0.51
   4   -2   12   0.800879         0.02         0.03
   4   -1  -10   0.858335         2.57         2.66
   4   -1   -7   0.973455         0.03         0.03
   4   -1   -4   1.078431         1.66         1.63
   4   -1   -1   1.138869         0.05         0.05
   4   -1    2   1.125969         0.68         0.68
   4   -1    5   1.046482         0.04         0.04
   4   -1    8   0.934898         0.73         0.77
   4   -1   11   0.821522         0.02         0.02
   4    0   -8   0.870166         0.47         0.47
   4    0   -2   1.017805         0.46         0.47
   4    0    4   0.982287         0.46         0.48
   4    0   10   0.807427         1.35         1.43
   5   -2   -8   0.817252         0.09         0.09
   5   -2   -5   0.888670         0.08         0.08
   5   -2   -2   0.935816         0.03         0.03
   5   -2    1   0.943183         0.09         0.10
   5   -2    4   0.907986         2.39         2.47
   5   -2    7   0.842633         0.07         0.07
   5   -2   10   0.764620         0.93         1.00
   5   -1   -9   0.763466         0.29         0.31
   5   -1   -6   0.830712         1.84         1.88
   5   -1   -3   0.880727         0.39         0.41
   5   -1    0   0.899519         1.33         1.39
   5   -1    3   0.880727         0.39         0.41
   5   -1    6   0.830712         1.84         1.88
   5   -1    9   0.763466         0.29         0.31
   5    0   -4   0.799091         0.88         0.93
   5    0    2   0.817865         0.01         0.01
   6   -3    0   0.793301         1.73         1.82
   6   -3    3   0.780321         0.00         0.00
   6   -2   -1   0.777610         0.10         0.10
   6   -2    2   0.773466         0.11         0.11


data_phase_Si_1
_pd_block_id Si_1
_pd_block_diffractogram_id pattern_1

_pd_phase_name Si_1
_cell_length_a 5.431349
_cell_length_b 5.431349
_cell_length_c 5.431349
_cell_angle_alpha 90
_cell_angle_beta 90
_cell_angle_gamma 90
_cell_volume 160.2224
_symmetry_space_group_name_H-M Fd-3mS
loop_
	_symmetry_equiv_pos_as_xyz
	 'x, y, z '
	 '-x, z+1/2, -y+1/2 '
	 '-x+1/4, -y+1/4, -z+1/4 '
	 '-x+1/4, -z+1/4, -y+1/4 '
	 '-x+1/2, -z, y+1/2 '
	 '-x+1/2, y+1/2, -z '
	 '-x-1/4, z-1/4, y+1/4 '
	 '-x-1/4, y+1/4, z-1/4 '
	 '-y, -z+1/2, x+1/2 '
	 '-y, x+1/2, -z+1/2 '
	 '-y+1/4, -x+1/4, -z+1/4 '
	 '-y+1/4, -z+1/4, -x+1/4 '
	 '-y+1/2, -x, z+1/2 '
	 '-y+1/2, z+1/2, -x '
	 '-y-1/4, z+1/4, x-1/4 '
	 '-y-1/4, x-1/4, z+1/4 '
	 '-z, -x+1/2, y+1/2 '
	 '-z, y+1/2, -x+1/2 '
	 '-z+1/4, -x+1/4, -y+1/4 '
	 '-z+1/4, -y+1/4, -x+1/4 '
	 '-z+1/2, -y, x+1/2 '
	 '-z+1/2, x+1/2, -y '
	 '-z-1/4, y-1/4, x+1/4 '
	 '-z-1/4, x+1/4, y-1/4 '
	 'z, y, x '
	 'z, x, y '
	 'z+1/4, -y-1/4, x-1/4 '
	 'z+1/4, x-1/4, -y-1/4 '
	 'z+1/2, -x, -y+1/2 '
	 'z+1/2, -y+1/2, -x '
	 'z-1/4, -x-1/4, y+1/4 '
	 'z-1/4, y+1/4, -x-1/4 '
	 'y, z, x '
	 'y, x, z '
	 'y+1/4, -x-1/4, z-1/4 '
	 'y+1/4, z-1/4, -x-1/4 '
	 'y+1/2, -x+1/2, -z '
	 'y+1/2, -z, -x+1/2 '
	 'y-1/4, -z-1/4, x+1/4 '
	 'y-1/4, x+1/4, -z-1/4 '
	 'x, z, y '
	 '-x, -y+1/2, z+1/2 '
	 'x+1/4, -z-1/4, y-1/4 '
	 'x+1/4, y-1/4, -z-1/4 '
	 'x+1/2, -y, -z+1/2 '
	 'x+1/2, -z+1/2, -y '
	 'x-1/4, -y-1/4, z+1/4 '
	 'x-1/4, z+1/4, -y-1/4 '
	 'x+1/2, y+1/2, z '
	 '-x+1/2, z, -y+1/2 '
	 '-x-1/4, -y-1/4, -z+1/4 '
	 '-x-1/4, -z-1/4, -y+1/4 '
	 '-x, -z+1/2, y+1/2 '
	 '-x, y, -z '
	 '-x+1/4, z+1/4, y+1/4 '
	 '-x+1/4, y-1/4, z-1/4 '
	 '-y+1/2, -z, x+1/2 '
	 '-y+1/2, x, -z+1/2 '
	 '-y-1/4, -x-1/4, -z+1/4 '
	 '-y-1/4, -z-1/4, -x+1/4 '
	 '-y, -x+1/2, z+1/2 '
	 '-y, z, -x '
	 '-y+1/4, z-1/4, x-1/4 '
	 '-y+1/4, x+1/4, z+1/4 '
	 '-z+1/2, -x, y+1/2 '
	 '-z+1/2, y, -x+1/2 '
	 '-z-1/4, -x-1/4, -y+1/4 '
	 '-z-1/4, -y-1/4, -x+1/4 '
	 '-z, -y+1/2, x+1/2 '
	 '-z, x, -y '
	 '-z+1/4, y+1/4, x+1/4 '
	 '-z+1/4, x-1/4, y-1/4 '
	 'z+1/2, y+1/2, x '
	 'z+1/2, x+1/2, y '
	 'z-1/4, -y+1/4, x-1/4 '
	 'z-1/4, x+1/4, -y-1/4 '
	 'z, -x+1/2, -y+1/2 '
	 'z, -y, -x '
	 'z+1/4, -x+1/4, y+1/4 '
	 'z+1/4, y-1/4, -x-1/4 '
	 'y+1/2, z+1/2, x '
	 'y+1/2, x+1/2, z '
	 'y-1/4, -x+1/4, z-1/4 '
	 'y-1/4, z+1/4, -x-1/4 '
	 'y, -x, -z '
	 'y, -z+1/2, -x+1/2 '
	 'y+1/4, -z+1/4, x+1/4 '
	 'y+1/4, x-1/4, -z-1/4 '
	 'x+1/2, z+1/2, y '
	 '-x+1/2, -y, z+1/2 '
	 'x-1/4, -z+1/4, y-1/4 '
	 'x-1/4, y+1/4, -z-1/4 '
	 'x, -y+1/2, -z+1/2 '
	 'x, -z, -y '
	 'x+1/4, -y+1/4, z+1/4 '
	 'x+1/4, z-1/4, -y-1/4 '
	 'x+1/2, y, z+1/2 '
	 '-x+1/2, z+1/2, -y '
	 '-x-1/4, -y+1/4, -z-1/4 '
	 '-x-1/4, -z+1/4, -y-1/4 '
	 '-x, -z, y '
	 '-x, y+1/2, -z+1/2 '
	 '-x+1/4, z-1/4, y-1/4 '
	 '-x+1/4, y+1/4, z+1/4 '
	 '-y+1/2, -z+1/2, x '
	 '-y+1/2, x+1/2, -z '
	 '-y-1/4, -x+1/4, -z-1/4 '
	 '-y-1/4, -z+1/4, -x-1/4 '
	 '-y, -x, z '
	 '-y, z+1/2, -x+1/2 '
	 '-y+1/4, z+1/4, x+1/4 '
	 '-y+1/4, x-1/4, z-1/4 '
	 '-z+1/2, -x+1/2, y '
	 '-z+1/2, y+1/2, -x '
	 '-z-1/4, -x+1/4, -y-1/4 '
	 '-z-1/4, -y+1/4, -x-1/4 '
	 '-z, -y, x '
	 '-z, x+1/2, -y+1/2 '
	 '-z+1/4, y-1/4, x-1/4 '
	 '-z+1/4, x+1/4, y+1/4 '
	 'z+1/2, y, x+1/2 '
	 'z+1/2, x, y+1/2 '
	 'z-1/4, -y-1/4, x+1/4 '
	 'z-1/4, x-1/4, -y+1/4 '
	 'z, -x, -y '
	 'z, -y+1/2, -x+1/2 '
	 'z+1/4, -x-1/4, y-1/4 '
	 'z+1/4, y+1/4, -x+1/4 '
	 'y+1/2, z, x+1/2 '
	 'y+1/2, x, z+1/2 '
	 'y-1/4, -x-1/4, z+1/4 '
	 'y-1/4, z-1/4, -x+1/4 '
	 'y, -x+1/2, -z+1/2 '
	 'y, -z, -x '
	 'y+1/4, -z-1/4, x-1/4 '
	 'y+1/4, x+1/4, -z+1/4 '
	 'x+1/2, z, y+1/2 '
	 '-x+1/2, -y+1/2, z '
	 'x-1/4, -z-1/4, y+1/4 '
	 'x-1/4, y-1/4, -z+1/4 '
	 'x, -y, -z '
	 'x, -z+1/2, -y+1/2 '
	 'x+1/4, -y-1/4, z-1/4 '
	 'x+1/4, z+1/4, -y+1/4 '
	 'x, y+1/2, z+1/2 '
	 '-x, z, -y '
	 '-x+1/4, -y-1/4, -z-1/4 '
	 '-x+1/4, -z-1/4, -y-1/4 '
	 '-x+1/2, -z+1/2, y '
	 '-x+1/2, y, -z+1/2 '
	 '-x-1/4, z+1/4, y-1/4 '
	 '-x-1/4, y-1/4, z+1/4 '
	 '-y, -z, x '
	 '-y, x, -z '
	 '-y+1/4, -x-1/4, -z-1/4 '
	 '-y+1/4, -z-1/4, -x-1/4 '
	 '-y+1/2, -x+1/2, z '
	 '-y+1/2, z, -x+1/2 '
	 '-y-1/4, z-1/4, x+1/4 '
	 '-y-1/4, x+1/4, z-1/4 '
	 '-z, -x, y '
	 '-z, y, -x '
	 '-z+1/4, -x-1/4, -y-1/4 '
	 '-z+1/4, -y-1/4, -x-1/4 '
	 '-z+1/2, -y+1/2, x '
	 '-z+1/2, x, -y+1/2 '
	 '-z-1/4, y+1/4, x-1/4 '
	 '-z-1/4, x-1/4, y+1/4 '
	 'z, y+1/2, x+1/2 '
	 'z, x+1/2, y+1/2 '
	 'z+1/4, -y+1/4, x+1/4 '
	 'z+1/4, x+1/4, -y+1/4 '
	 'z+1/2, -x+1/2, -y '
	 'z+1/2, -y, -x+1/2 '
	 'z-1/4, -x+1/4, y-1/4 '
	 'z-1/4, y-1/4, -x+1/4 '
	 'y, z+1/2, x+1/2 '
	 'y, x+1/2, z+1/2 '
	 'y+1/4, -x+1/4, z+1/4 '
	 'y+1/4, z+1/4, -x+1/4 '
	 'y+1/2, -x, -z+1/2 '
	 'y+1/2, -z+1/2, -x '
	 'y-1/4, -z+1/4, x-1/4 '
	 'y-1/4, x-1/4, -z+1/4 '
	 'x, z+1/2, y+1/2 '
	 '-x, -y, z '
	 'x+1/4, -z+1/4, y+1/4 '
	 'x+1/4, y+1/4, -z+1/4 '
	 'x+1/2, -y+1/2, -z '
	 'x+1/2, -z, -y+1/2 '
	 'x-1/4, -y+1/4, z-1/4 '
	 'x-1/4, z-1/4, -y+1/4 '
loop_
_atom_site_label
_atom_site_type_symbol
_atom_site_site_symmetry_multiplicity
_atom_site_fract_x
_atom_site_fract_y
_atom_site_fract_z
_atom_site_occupancy
_atom_site_B_iso_or_equiv
Si1 Si   8 0 0 0 1 0.4081561

loop_
_refln_index_h
_refln_index_k
_refln_index_l
_refln_d_spacing
_refln_F_squared_calc
_refln_F_squared_meas
   1    1    1    3.135791         2.87         2.94
   2    2    0    1.920272         5.70         5.70
   2    2    2    1.567895         0.00         0.00
   3    1    1    1.637613         4.91         4.82
   3    3    1    1.246037         3.61         3.79
   3    3    3    1.045264         0.92         0.97
   4    0    0    1.357837         2.01         2.01
   4    2    2    1.108670         6.09         6.24
   4    4    0    0.960136         2.34         2.37
   4    4    2    0.905225         0.00         0.00
   4    4    4    0.783948         0.96         1.00
   5    1    1    1.045264         2.75         2.90
   5    3    1    0.918066         4.26         4.17
   5    3    3    0.828273         1.66         1.67
   6    2    0    0.858772         3.64         3.59
   6    2    2    0.818807         0.00         0.00



data_phase_Al2O3_2
_pd_block_id Al2O3_2
_pd_block_diffractogram_id pattern_2

_pd_phase_name Al2O3_2
_cell_length_a 4.760327
_cell_length_b 4.760327
_cell_length_c 12.99565
_cell_angle_alpha 90
_cell_angle_beta 90
_cell_angle_gamma 120
_cell_volume 255.0365
_symmetry_space_group_name_H-M R-3cH
loop_
	_symmetry_equiv_pos_as_xyz
	 'x, y, z '
	 '-x, -y, -z '
	 '-x+y, -x, z '
	 '-x+y, y, z+1/2 '
	 '-y, -x, z+1/2 '
	 '-y, x-y, z '
	 'y, -x+y, -z '
	 'y, x, -z+1/2 '
	 'x-y, -y, -z+1/2 '
	 'x-y, x, -z '
	 '-x, -x+y, -z+1/2 '
	 'x, x-y, z+1/2 '
	 'x-1/3, y+1/3, z+1/3 '
	 '-x-1/3, -y+1/3, -z+1/3 '
	 '-x+y-1/3, -x+1/3, z+1/3 '
	 '-x+y-1/3, y+1/3, z-1/6 '
	 '-y-1/3, -x+1/3, z-1/6 '
	 '-y-1/3, x-y+1/3, z+1/3 '
	 'y-1/3, -x+y+1/3, -z+1/3 '
	 'y-1/3, x+1/3, -z-1/6 '
	 'x-y-1/3, -y+1/3, -z-1/6 '
	 'x-y-1/3, x+1/3, -z+1/3 '
	 '-x-1/3, -x+y+1/3, -z-1/6 '
	 'x-1/3, x-y+1/3, z-1/6 '
	 'x+1/3, y-1/3, z-1/3 '
	 '-x+1/3, -y-1/3, -z-1/3 '
	 '-x+y+1/3, -x-1/3, z-1/3 '
	 '-x+y+1/3, y-1/3, z+1/6 '
	 '-y+1/3, -x-1/3, z+1/6 '
	 '-y+1/3, x-y-1/3, z-1/3 '
	 'y+1/3, -x+y-1/3, -z-1/3 '
	 'y+1/3, x-1/3, -z+1/6 '
	 'x-y+1/3, -y-1/3, -z+1/6 '
	 'x-y+1/3, x-1/3, -z-1/3 '
	 '-x+1/3, -x+y-1/3, -z+1/6 '
	 'x+1/3, x-y-1/3, z+1/6 '
loop_
_atom_site_label
_atom_site_type_symbol
_atom_site_site_symmetry_multiplicity
_atom_site_fract_x
_atom_site_fract_y
_atom_site_fract_z
_atom_site_occupancy
_atom_site_B_iso_or_equiv
Al1 Al+3  12 0 0 0.148 1 0.3321657
O1 O-2  18 0.306 0 0.25 1 0.3321657

loop_
_refln_index_h
_refln_index_k
_refln_index_l
_refln_d_spacing
_refln_F_squared_calc
_refln_F_squared_meas
   0    0    6    2.165942         0.03         0.03
   0    0   12    1.082971         0.35         0.35
   1    0  -14    0.905588         0.81         0.85
   1    0   -8    1.511356         0.65         0.66
   1    0   -2    3.481058         0.77         0.77
   1    0    4    2.551744         2.29         2.36
   1    0   10    1.239441         2.47         2.44
   1    0   16    0.796909         0.31         0.33
   2   -1    0    2.380164         1.18         1.19
   2   -1    3    2.086020         4.18         4.36
   2   -1    6    1.601945         7.70         7.59
   2   -1    9    1.234542         1.26         1.33
   2   -1   12    0.985732         0.05         0.05
   2   -1   15    0.814120         0.48         0.48
   2    0  -10    1.099321         1.40         1.37
   2    0   -4    1.740529         3.15         3.06
   2    0    2    1.964791         0.07         0.07
   2    0    8    1.275872         0.19         0.21
   2    0   14    0.846396         0.99         1.00
   3   -1  -14    0.797474         1.48         1.57
   3   -1  -11    0.941417         0.06         0.06
   3   -1   -8    1.124501         0.47         0.47
   3   -1   -5    1.336425         0.15         0.14
   3   -1   -2    1.515226         0.30         0.31
   3   -1    1    1.547102         0.21         0.22
   3   -1    4    1.404956         4.19         4.08
   3   -1    7    1.193518         0.11         0.12
   3   -1   10    0.998014         2.61         2.67
   3   -1   13    0.841394         0.05         0.05
   3    0  -12    0.850581         0.51         0.52
   3    0   -6    1.160353         0.07         0.07
   3    0    0    1.374188         6.68         6.73
   3    0    6    1.160353         0.07         0.07
   3    0   12    0.850581         0.51         0.52
   4   -2    0    1.190082         1.05         1.06
   4   -2    3    1.147564         0.86         0.84
   4   -2    6    1.043010         3.46         3.50
   4   -2    9    0.918368         0.51         0.53
   4   -2   12    0.800972         0.02         0.03
   4   -1  -10    0.858434         2.59         2.64
   4   -1   -7    0.973566         0.03         0.03
   4   -1   -4    1.078551         1.67         1.70
   4   -1   -1    1.138994         0.05         0.05
   4   -1    2    1.126092         0.68         0.68
   4   -1    5    1.046599         0.04         0.04
   4   -1    8    0.935005         0.74         0.75
   4   -1   11    0.821617         0.02         0.02
   4    0   -8    0.870265         0.47         0.47
   4    0   -2    1.017916         0.46         0.47
   4    0    4    0.982395         0.46         0.49
   4    0   10    0.807520         1.37         1.42
   5   -2   -8    0.817344         0.09         0.09
   5   -2   -5    0.888768         0.08         0.08
   5   -2   -2    0.935919         0.03         0.03
   5   -2    1    0.943286         0.09         0.09
   5   -2    4    0.908086         2.41         2.51
   5   -2    7    0.842727         0.07         0.08
   5   -2   10    0.764707         0.94         1.01
   5   -1   -9    0.763553         0.29         0.31
   5   -1   -6    0.830805         1.85         1.90
   5   -1   -3    0.880824         0.40         0.40
   5   -1    0    0.899617         1.34         1.38
   5   -1    3    0.880824         0.40         0.40
   5   -1    6    0.830805         1.85         1.90
   5   -1    9    0.763553         0.29         0.31
   5    0   -4    0.799179         0.89         0.92
   5    0    2    0.817954         0.01         0.01
   6   -3    0    0.793388         1.75         1.89
   6   -3    3    0.780407         0.00         0.00
   6   -2   -1    0.777695         0.10         0.10
   6   -2    2    0.773551         0.11         0.11

   
   
data_phase_Si_2
_pd_block_id Si_2
_pd_block_diffractogram_id pattern_2

_pd_phase_name Si_2
_cell_length_a 5.431642
_cell_length_b 5.431642
_cell_length_c 5.431642
_cell_angle_alpha 90
_cell_angle_beta 90
_cell_angle_gamma 90
_cell_volume 160.2483
_symmetry_space_group_name_H-M Fd-3mS
loop_
	_symmetry_equiv_pos_as_xyz
	 'x, y, z '
	 '-x, z+1/2, -y+1/2 '
	 '-x+1/4, -y+1/4, -z+1/4 '
	 '-x+1/4, -z+1/4, -y+1/4 '
	 '-x+1/2, -z, y+1/2 '
	 '-x+1/2, y+1/2, -z '
	 '-x-1/4, z-1/4, y+1/4 '
	 '-x-1/4, y+1/4, z-1/4 '
	 '-y, -z+1/2, x+1/2 '
	 '-y, x+1/2, -z+1/2 '
	 '-y+1/4, -x+1/4, -z+1/4 '
	 '-y+1/4, -z+1/4, -x+1/4 '
	 '-y+1/2, -x, z+1/2 '
	 '-y+1/2, z+1/2, -x '
	 '-y-1/4, z+1/4, x-1/4 '
	 '-y-1/4, x-1/4, z+1/4 '
	 '-z, -x+1/2, y+1/2 '
	 '-z, y+1/2, -x+1/2 '
	 '-z+1/4, -x+1/4, -y+1/4 '
	 '-z+1/4, -y+1/4, -x+1/4 '
	 '-z+1/2, -y, x+1/2 '
	 '-z+1/2, x+1/2, -y '
	 '-z-1/4, y-1/4, x+1/4 '
	 '-z-1/4, x+1/4, y-1/4 '
	 'z, y, x '
	 'z, x, y '
	 'z+1/4, -y-1/4, x-1/4 '
	 'z+1/4, x-1/4, -y-1/4 '
	 'z+1/2, -x, -y+1/2 '
	 'z+1/2, -y+1/2, -x '
	 'z-1/4, -x-1/4, y+1/4 '
	 'z-1/4, y+1/4, -x-1/4 '
	 'y, z, x '
	 'y, x, z '
	 'y+1/4, -x-1/4, z-1/4 '
	 'y+1/4, z-1/4, -x-1/4 '
	 'y+1/2, -x+1/2, -z '
	 'y+1/2, -z, -x+1/2 '
	 'y-1/4, -z-1/4, x+1/4 '
	 'y-1/4, x+1/4, -z-1/4 '
	 'x, z, y '
	 '-x, -y+1/2, z+1/2 '
	 'x+1/4, -z-1/4, y-1/4 '
	 'x+1/4, y-1/4, -z-1/4 '
	 'x+1/2, -y, -z+1/2 '
	 'x+1/2, -z+1/2, -y '
	 'x-1/4, -y-1/4, z+1/4 '
	 'x-1/4, z+1/4, -y-1/4 '
	 'x+1/2, y+1/2, z '
	 '-x+1/2, z, -y+1/2 '
	 '-x-1/4, -y-1/4, -z+1/4 '
	 '-x-1/4, -z-1/4, -y+1/4 '
	 '-x, -z+1/2, y+1/2 '
	 '-x, y, -z '
	 '-x+1/4, z+1/4, y+1/4 '
	 '-x+1/4, y-1/4, z-1/4 '
	 '-y+1/2, -z, x+1/2 '
	 '-y+1/2, x, -z+1/2 '
	 '-y-1/4, -x-1/4, -z+1/4 '
	 '-y-1/4, -z-1/4, -x+1/4 '
	 '-y, -x+1/2, z+1/2 '
	 '-y, z, -x '
	 '-y+1/4, z-1/4, x-1/4 '
	 '-y+1/4, x+1/4, z+1/4 '
	 '-z+1/2, -x, y+1/2 '
	 '-z+1/2, y, -x+1/2 '
	 '-z-1/4, -x-1/4, -y+1/4 '
	 '-z-1/4, -y-1/4, -x+1/4 '
	 '-z, -y+1/2, x+1/2 '
	 '-z, x, -y '
	 '-z+1/4, y+1/4, x+1/4 '
	 '-z+1/4, x-1/4, y-1/4 '
	 'z+1/2, y+1/2, x '
	 'z+1/2, x+1/2, y '
	 'z-1/4, -y+1/4, x-1/4 '
	 'z-1/4, x+1/4, -y-1/4 '
	 'z, -x+1/2, -y+1/2 '
	 'z, -y, -x '
	 'z+1/4, -x+1/4, y+1/4 '
	 'z+1/4, y-1/4, -x-1/4 '
	 'y+1/2, z+1/2, x '
	 'y+1/2, x+1/2, z '
	 'y-1/4, -x+1/4, z-1/4 '
	 'y-1/4, z+1/4, -x-1/4 '
	 'y, -x, -z '
	 'y, -z+1/2, -x+1/2 '
	 'y+1/4, -z+1/4, x+1/4 '
	 'y+1/4, x-1/4, -z-1/4 '
	 'x+1/2, z+1/2, y '
	 '-x+1/2, -y, z+1/2 '
	 'x-1/4, -z+1/4, y-1/4 '
	 'x-1/4, y+1/4, -z-1/4 '
	 'x, -y+1/2, -z+1/2 '
	 'x, -z, -y '
	 'x+1/4, -y+1/4, z+1/4 '
	 'x+1/4, z-1/4, -y-1/4 '
	 'x+1/2, y, z+1/2 '
	 '-x+1/2, z+1/2, -y '
	 '-x-1/4, -y+1/4, -z-1/4 '
	 '-x-1/4, -z+1/4, -y-1/4 '
	 '-x, -z, y '
	 '-x, y+1/2, -z+1/2 '
	 '-x+1/4, z-1/4, y-1/4 '
	 '-x+1/4, y+1/4, z+1/4 '
	 '-y+1/2, -z+1/2, x '
	 '-y+1/2, x+1/2, -z '
	 '-y-1/4, -x+1/4, -z-1/4 '
	 '-y-1/4, -z+1/4, -x-1/4 '
	 '-y, -x, z '
	 '-y, z+1/2, -x+1/2 '
	 '-y+1/4, z+1/4, x+1/4 '
	 '-y+1/4, x-1/4, z-1/4 '
	 '-z+1/2, -x+1/2, y '
	 '-z+1/2, y+1/2, -x '
	 '-z-1/4, -x+1/4, -y-1/4 '
	 '-z-1/4, -y+1/4, -x-1/4 '
	 '-z, -y, x '
	 '-z, x+1/2, -y+1/2 '
	 '-z+1/4, y-1/4, x-1/4 '
	 '-z+1/4, x+1/4, y+1/4 '
	 'z+1/2, y, x+1/2 '
	 'z+1/2, x, y+1/2 '
	 'z-1/4, -y-1/4, x+1/4 '
	 'z-1/4, x-1/4, -y+1/4 '
	 'z, -x, -y '
	 'z, -y+1/2, -x+1/2 '
	 'z+1/4, -x-1/4, y-1/4 '
	 'z+1/4, y+1/4, -x+1/4 '
	 'y+1/2, z, x+1/2 '
	 'y+1/2, x, z+1/2 '
	 'y-1/4, -x-1/4, z+1/4 '
	 'y-1/4, z-1/4, -x+1/4 '
	 'y, -x+1/2, -z+1/2 '
	 'y, -z, -x '
	 'y+1/4, -z-1/4, x-1/4 '
	 'y+1/4, x+1/4, -z+1/4 '
	 'x+1/2, z, y+1/2 '
	 '-x+1/2, -y+1/2, z '
	 'x-1/4, -z-1/4, y+1/4 '
	 'x-1/4, y-1/4, -z+1/4 '
	 'x, -y, -z '
	 'x, -z+1/2, -y+1/2 '
	 'x+1/4, -y-1/4, z-1/4 '
	 'x+1/4, z+1/4, -y+1/4 '
	 'x, y+1/2, z+1/2 '
	 '-x, z, -y '
	 '-x+1/4, -y-1/4, -z-1/4 '
	 '-x+1/4, -z-1/4, -y-1/4 '
	 '-x+1/2, -z+1/2, y '
	 '-x+1/2, y, -z+1/2 '
	 '-x-1/4, z+1/4, y-1/4 '
	 '-x-1/4, y-1/4, z+1/4 '
	 '-y, -z, x '
	 '-y, x, -z '
	 '-y+1/4, -x-1/4, -z-1/4 '
	 '-y+1/4, -z-1/4, -x-1/4 '
	 '-y+1/2, -x+1/2, z '
	 '-y+1/2, z, -x+1/2 '
	 '-y-1/4, z-1/4, x+1/4 '
	 '-y-1/4, x+1/4, z-1/4 '
	 '-z, -x, y '
	 '-z, y, -x '
	 '-z+1/4, -x-1/4, -y-1/4 '
	 '-z+1/4, -y-1/4, -x-1/4 '
	 '-z+1/2, -y+1/2, x '
	 '-z+1/2, x, -y+1/2 '
	 '-z-1/4, y+1/4, x-1/4 '
	 '-z-1/4, x-1/4, y+1/4 '
	 'z, y+1/2, x+1/2 '
	 'z, x+1/2, y+1/2 '
	 'z+1/4, -y+1/4, x+1/4 '
	 'z+1/4, x+1/4, -y+1/4 '
	 'z+1/2, -x+1/2, -y '
	 'z+1/2, -y, -x+1/2 '
	 'z-1/4, -x+1/4, y-1/4 '
	 'z-1/4, y-1/4, -x+1/4 '
	 'y, z+1/2, x+1/2 '
	 'y, x+1/2, z+1/2 '
	 'y+1/4, -x+1/4, z+1/4 '
	 'y+1/4, z+1/4, -x+1/4 '
	 'y+1/2, -x, -z+1/2 '
	 'y+1/2, -z+1/2, -x '
	 'y-1/4, -z+1/4, x-1/4 '
	 'y-1/4, x-1/4, -z+1/4 '
	 'x, z+1/2, y+1/2 '
	 '-x, -y, z '
	 'x+1/4, -z+1/4, y+1/4 '
	 'x+1/4, y+1/4, -z+1/4 '
	 'x+1/2, -y+1/2, -z '
	 'x+1/2, -z, -y+1/2 '
	 'x-1/4, -y+1/4, z-1/4 '
	 'x-1/4, z-1/4, -y+1/4 '
loop_
_atom_site_label
_atom_site_type_symbol
_atom_site_site_symmetry_multiplicity
_atom_site_fract_x
_atom_site_fract_y
_atom_site_fract_z
_atom_site_occupancy
_atom_site_B_iso_or_equiv
Si1 Si   8 0 0 0 1 0.4211065

loop_
_refln_index_h
_refln_index_k
_refln_index_l
_refln_d_spacing
_refln_F_squared_calc
_refln_F_squared_meas
   1    1    1   3.135960         2.89         2.98
   2    2    0   1.920375         5.74         5.74
   2    2    2   1.567980         0.00         0.00
   3    1    1   1.637702         4.94         4.80
   3    3    1   1.246104         3.63         3.80
   3    3    3   1.045320         0.92         0.94
   4    0    0   1.357910         2.02         2.04
   4    2    2   1.108729         6.11         6.29
   4    4    0   0.960188         2.35         2.38
   4    4    2   0.905274         0.00         0.00
   4    4    4   0.783990         0.95         0.97
   5    1    1   1.045320         2.76         2.81
   5    3    1   0.918115         4.26         4.33
   5    3    3   0.828318         1.66         1.69
   6    2    0   0.858818         3.64         3.55
   6    2    2   0.818851         0.00         0.00
   
   
data_phase_Al2O3_3
_pd_block_id Al2O3_3
_pd_block_diffractogram_id pattern_3

_pd_phase_name Al2O3_3
_cell_length_a 4.7609
_cell_length_b 4.7609
_cell_length_c 12.99744
_cell_angle_alpha 90
_cell_angle_beta 90
_cell_angle_gamma 120
_cell_volume 255.1329
_symmetry_space_group_name_H-M R-3cH
loop_
	_symmetry_equiv_pos_as_xyz
	 'x, y, z '
	 '-x, -y, -z '
	 '-x+y, -x, z '
	 '-x+y, y, z+1/2 '
	 '-y, -x, z+1/2 '
	 '-y, x-y, z '
	 'y, -x+y, -z '
	 'y, x, -z+1/2 '
	 'x-y, -y, -z+1/2 '
	 'x-y, x, -z '
	 '-x, -x+y, -z+1/2 '
	 'x, x-y, z+1/2 '
	 'x-1/3, y+1/3, z+1/3 '
	 '-x-1/3, -y+1/3, -z+1/3 '
	 '-x+y-1/3, -x+1/3, z+1/3 '
	 '-x+y-1/3, y+1/3, z-1/6 '
	 '-y-1/3, -x+1/3, z-1/6 '
	 '-y-1/3, x-y+1/3, z+1/3 '
	 'y-1/3, -x+y+1/3, -z+1/3 '
	 'y-1/3, x+1/3, -z-1/6 '
	 'x-y-1/3, -y+1/3, -z-1/6 '
	 'x-y-1/3, x+1/3, -z+1/3 '
	 '-x-1/3, -x+y+1/3, -z-1/6 '
	 'x-1/3, x-y+1/3, z-1/6 '
	 'x+1/3, y-1/3, z-1/3 '
	 '-x+1/3, -y-1/3, -z-1/3 '
	 '-x+y+1/3, -x-1/3, z-1/3 '
	 '-x+y+1/3, y-1/3, z+1/6 '
	 '-y+1/3, -x-1/3, z+1/6 '
	 '-y+1/3, x-y-1/3, z-1/3 '
	 'y+1/3, -x+y-1/3, -z-1/3 '
	 'y+1/3, x-1/3, -z+1/6 '
	 'x-y+1/3, -y-1/3, -z+1/6 '
	 'x-y+1/3, x-1/3, -z-1/3 '
	 '-x+1/3, -x+y-1/3, -z+1/6 '
	 'x+1/3, x-y-1/3, z+1/6 '
loop_
_atom_site_label
_atom_site_type_symbol
_atom_site_site_symmetry_multiplicity
_atom_site_fract_x
_atom_site_fract_y
_atom_site_fract_z
_atom_site_occupancy
_atom_site_B_iso_or_equiv
Al1 Al+3  12 0 0 0.148 1 0.3540191
O1 O-2  18 0.306 0 0.25 1 0.3540191

loop_
_refln_index_h
_refln_index_k
_refln_index_l
_refln_d_spacing
_refln_F_squared_calc
_refln_F_squared_meas
   0    0    6    2.166239         0.03         0.03
   0    0   12    1.083120         0.34         0.34
   1    0  -14    0.905712         0.80         0.83
   1    0   -8    1.511560         0.65         0.65
   1    0   -2    3.481494         0.77         0.76
   1    0    4    2.552077         2.27         2.36
   1    0   10    1.239609         2.43         2.41
   1    0   16    0.797018         0.30         0.31
   2   -1    0    2.380450         1.18         1.17
   2   -1    3    2.086279         4.14         4.33
   2   -1    6    1.602152         7.62         7.45
   2   -1    9    1.234706         1.24         1.30
   2   -1   12    0.985865         0.05         0.05
   2   -1   15    0.814231         0.47         0.49
   2    0  -10    1.099466         1.38         1.36
   2    0   -4    1.740747         3.12         3.04
   2    0    2    1.965030         0.07         0.06
   2    0    8    1.276039         0.19         0.20
   2    0   14    0.846510         0.97         1.03
   3   -1  -14    0.797580         1.45         1.53
   3   -1  -11    0.941541         0.06         0.06
   3   -1   -8    1.124646         0.46         0.46
   3   -1   -5    1.336591         0.15         0.14
   3   -1   -2    1.515410         0.30         0.30
   3   -1    1    1.547289         0.21         0.22
   3   -1    4    1.405130         4.14         4.08
   3   -1    7    1.193670         0.11         0.12
   3   -1   10    0.998144         2.57         2.58
   3   -1   13    0.841505         0.05         0.05
   3    0  -12    0.850692         0.50         0.50
   3    0   -6    1.160498         0.07         0.07
   3    0    0    1.374354         6.60         6.67
   3    0    6    1.160498         0.07         0.07
   3    0   12    0.850692         0.50         0.50
   4   -2    0    1.190225         1.04         1.03
   4   -2    3    1.147703         0.85         0.83
   4   -2    6    1.043139         3.41         3.41
   4   -2    9    0.918484         0.50         0.52
   4   -2   12    0.801076         0.02         0.03
   4   -1  -10    0.858544         2.54         2.64
   4   -1   -7    0.973687         0.03         0.04
   4   -1   -4    1.078682         1.65         1.64
   4   -1   -1    1.139131         0.05         0.05
   4   -1    2    1.126229         0.67         0.68
   4   -1    5    1.046727         0.04         0.04
   4   -1    8    0.935123         0.72         0.75
   4   -1   11    0.821723         0.02         0.02
   4    0   -8    0.870374         0.46         0.48
   4    0   -2    1.018039         0.46         0.45
   4    0    4    0.982515         0.45         0.48
   4    0   10    0.807622         1.34         1.37
   5   -2   -8    0.817446         0.09         0.08
   5   -2   -5    0.888877         0.08         0.07
   5   -2   -2    0.936032         0.03         0.03
   5   -2    1    0.943400         0.09         0.09
   5   -2    4    0.908197         2.36         2.51
   5   -2    7    0.842832         0.07         0.07
   5   -2   10    0.764804         0.92         0.98
   5   -1   -9    0.763648         0.28         0.30
   5   -1   -6    0.830907         1.82         1.83
   5   -1   -3    0.880930         0.39         0.41
   5   -1    0    0.899726         1.31         1.40
   5   -1    3    0.880930         0.39         0.41
   5   -1    6    0.830907         1.82         1.83
   5   -1    9    0.763648         0.28         0.30
   5    0   -4    0.799276         0.87         0.93
   5    0    2    0.818053         0.01         0.01
   6   -3    0    0.793483         1.71         1.78
   6   -3    3    0.780501         0.00         0.00
   6   -2   -1    0.777789         0.09         0.10
   6   -2    2    0.773644         0.10         0.11

data_phase_Si_3
_pd_block_id Si_3
_pd_block_diffractogram_id pattern_3

_pd_phase_name Si_3
_cell_length_a 5.431974
_cell_length_b 5.431974
_cell_length_c 5.431974
_cell_angle_alpha 90
_cell_angle_beta 90
_cell_angle_gamma 90
_cell_volume 160.2777
_symmetry_space_group_name_H-M Fd-3mS
loop_
	_symmetry_equiv_pos_as_xyz
	 'x, y, z '
	 '-x, z+1/2, -y+1/2 '
	 '-x+1/4, -y+1/4, -z+1/4 '
	 '-x+1/4, -z+1/4, -y+1/4 '
	 '-x+1/2, -z, y+1/2 '
	 '-x+1/2, y+1/2, -z '
	 '-x-1/4, z-1/4, y+1/4 '
	 '-x-1/4, y+1/4, z-1/4 '
	 '-y, -z+1/2, x+1/2 '
	 '-y, x+1/2, -z+1/2 '
	 '-y+1/4, -x+1/4, -z+1/4 '
	 '-y+1/4, -z+1/4, -x+1/4 '
	 '-y+1/2, -x, z+1/2 '
	 '-y+1/2, z+1/2, -x '
	 '-y-1/4, z+1/4, x-1/4 '
	 '-y-1/4, x-1/4, z+1/4 '
	 '-z, -x+1/2, y+1/2 '
	 '-z, y+1/2, -x+1/2 '
	 '-z+1/4, -x+1/4, -y+1/4 '
	 '-z+1/4, -y+1/4, -x+1/4 '
	 '-z+1/2, -y, x+1/2 '
	 '-z+1/2, x+1/2, -y '
	 '-z-1/4, y-1/4, x+1/4 '
	 '-z-1/4, x+1/4, y-1/4 '
	 'z, y, x '
	 'z, x, y '
	 'z+1/4, -y-1/4, x-1/4 '
	 'z+1/4, x-1/4, -y-1/4 '
	 'z+1/2, -x, -y+1/2 '
	 'z+1/2, -y+1/2, -x '
	 'z-1/4, -x-1/4, y+1/4 '
	 'z-1/4, y+1/4, -x-1/4 '
	 'y, z, x '
	 'y, x, z '
	 'y+1/4, -x-1/4, z-1/4 '
	 'y+1/4, z-1/4, -x-1/4 '
	 'y+1/2, -x+1/2, -z '
	 'y+1/2, -z, -x+1/2 '
	 'y-1/4, -z-1/4, x+1/4 '
	 'y-1/4, x+1/4, -z-1/4 '
	 'x, z, y '
	 '-x, -y+1/2, z+1/2 '
	 'x+1/4, -z-1/4, y-1/4 '
	 'x+1/4, y-1/4, -z-1/4 '
	 'x+1/2, -y, -z+1/2 '
	 'x+1/2, -z+1/2, -y '
	 'x-1/4, -y-1/4, z+1/4 '
	 'x-1/4, z+1/4, -y-1/4 '
	 'x+1/2, y+1/2, z '
	 '-x+1/2, z, -y+1/2 '
	 '-x-1/4, -y-1/4, -z+1/4 '
	 '-x-1/4, -z-1/4, -y+1/4 '
	 '-x, -z+1/2, y+1/2 '
	 '-x, y, -z '
	 '-x+1/4, z+1/4, y+1/4 '
	 '-x+1/4, y-1/4, z-1/4 '
	 '-y+1/2, -z, x+1/2 '
	 '-y+1/2, x, -z+1/2 '
	 '-y-1/4, -x-1/4, -z+1/4 '
	 '-y-1/4, -z-1/4, -x+1/4 '
	 '-y, -x+1/2, z+1/2 '
	 '-y, z, -x '
	 '-y+1/4, z-1/4, x-1/4 '
	 '-y+1/4, x+1/4, z+1/4 '
	 '-z+1/2, -x, y+1/2 '
	 '-z+1/2, y, -x+1/2 '
	 '-z-1/4, -x-1/4, -y+1/4 '
	 '-z-1/4, -y-1/4, -x+1/4 '
	 '-z, -y+1/2, x+1/2 '
	 '-z, x, -y '
	 '-z+1/4, y+1/4, x+1/4 '
	 '-z+1/4, x-1/4, y-1/4 '
	 'z+1/2, y+1/2, x '
	 'z+1/2, x+1/2, y '
	 'z-1/4, -y+1/4, x-1/4 '
	 'z-1/4, x+1/4, -y-1/4 '
	 'z, -x+1/2, -y+1/2 '
	 'z, -y, -x '
	 'z+1/4, -x+1/4, y+1/4 '
	 'z+1/4, y-1/4, -x-1/4 '
	 'y+1/2, z+1/2, x '
	 'y+1/2, x+1/2, z '
	 'y-1/4, -x+1/4, z-1/4 '
	 'y-1/4, z+1/4, -x-1/4 '
	 'y, -x, -z '
	 'y, -z+1/2, -x+1/2 '
	 'y+1/4, -z+1/4, x+1/4 '
	 'y+1/4, x-1/4, -z-1/4 '
	 'x+1/2, z+1/2, y '
	 '-x+1/2, -y, z+1/2 '
	 'x-1/4, -z+1/4, y-1/4 '
	 'x-1/4, y+1/4, -z-1/4 '
	 'x, -y+1/2, -z+1/2 '
	 'x, -z, -y '
	 'x+1/4, -y+1/4, z+1/4 '
	 'x+1/4, z-1/4, -y-1/4 '
	 'x+1/2, y, z+1/2 '
	 '-x+1/2, z+1/2, -y '
	 '-x-1/4, -y+1/4, -z-1/4 '
	 '-x-1/4, -z+1/4, -y-1/4 '
	 '-x, -z, y '
	 '-x, y+1/2, -z+1/2 '
	 '-x+1/4, z-1/4, y-1/4 '
	 '-x+1/4, y+1/4, z+1/4 '
	 '-y+1/2, -z+1/2, x '
	 '-y+1/2, x+1/2, -z '
	 '-y-1/4, -x+1/4, -z-1/4 '
	 '-y-1/4, -z+1/4, -x-1/4 '
	 '-y, -x, z '
	 '-y, z+1/2, -x+1/2 '
	 '-y+1/4, z+1/4, x+1/4 '
	 '-y+1/4, x-1/4, z-1/4 '
	 '-z+1/2, -x+1/2, y '
	 '-z+1/2, y+1/2, -x '
	 '-z-1/4, -x+1/4, -y-1/4 '
	 '-z-1/4, -y+1/4, -x-1/4 '
	 '-z, -y, x '
	 '-z, x+1/2, -y+1/2 '
	 '-z+1/4, y-1/4, x-1/4 '
	 '-z+1/4, x+1/4, y+1/4 '
	 'z+1/2, y, x+1/2 '
	 'z+1/2, x, y+1/2 '
	 'z-1/4, -y-1/4, x+1/4 '
	 'z-1/4, x-1/4, -y+1/4 '
	 'z, -x, -y '
	 'z, -y+1/2, -x+1/2 '
	 'z+1/4, -x-1/4, y-1/4 '
	 'z+1/4, y+1/4, -x+1/4 '
	 'y+1/2, z, x+1/2 '
	 'y+1/2, x, z+1/2 '
	 'y-1/4, -x-1/4, z+1/4 '
	 'y-1/4, z-1/4, -x+1/4 '
	 'y, -x+1/2, -z+1/2 '
	 'y, -z, -x '
	 'y+1/4, -z-1/4, x-1/4 '
	 'y+1/4, x+1/4, -z+1/4 '
	 'x+1/2, z, y+1/2 '
	 '-x+1/2, -y+1/2, z '
	 'x-1/4, -z-1/4, y+1/4 '
	 'x-1/4, y-1/4, -z+1/4 '
	 'x, -y, -z '
	 'x, -z+1/2, -y+1/2 '
	 'x+1/4, -y-1/4, z-1/4 '
	 'x+1/4, z+1/4, -y+1/4 '
	 'x, y+1/2, z+1/2 '
	 '-x, z, -y '
	 '-x+1/4, -y-1/4, -z-1/4 '
	 '-x+1/4, -z-1/4, -y-1/4 '
	 '-x+1/2, -z+1/2, y '
	 '-x+1/2, y, -z+1/2 '
	 '-x-1/4, z+1/4, y-1/4 '
	 '-x-1/4, y-1/4, z+1/4 '
	 '-y, -z, x '
	 '-y, x, -z '
	 '-y+1/4, -x-1/4, -z-1/4 '
	 '-y+1/4, -z-1/4, -x-1/4 '
	 '-y+1/2, -x+1/2, z '
	 '-y+1/2, z, -x+1/2 '
	 '-y-1/4, z-1/4, x+1/4 '
	 '-y-1/4, x+1/4, z-1/4 '
	 '-z, -x, y '
	 '-z, y, -x '
	 '-z+1/4, -x-1/4, -y-1/4 '
	 '-z+1/4, -y-1/4, -x-1/4 '
	 '-z+1/2, -y+1/2, x '
	 '-z+1/2, x, -y+1/2 '
	 '-z-1/4, y+1/4, x-1/4 '
	 '-z-1/4, x-1/4, y+1/4 '
	 'z, y+1/2, x+1/2 '
	 'z, x+1/2, y+1/2 '
	 'z+1/4, -y+1/4, x+1/4 '
	 'z+1/4, x+1/4, -y+1/4 '
	 'z+1/2, -x+1/2, -y '
	 'z+1/2, -y, -x+1/2 '
	 'z-1/4, -x+1/4, y-1/4 '
	 'z-1/4, y-1/4, -x+1/4 '
	 'y, z+1/2, x+1/2 '
	 'y, x+1/2, z+1/2 '
	 'y+1/4, -x+1/4, z+1/4 '
	 'y+1/4, z+1/4, -x+1/4 '
	 'y+1/2, -x, -z+1/2 '
	 'y+1/2, -z+1/2, -x '
	 'y-1/4, -z+1/4, x-1/4 '
	 'y-1/4, x-1/4, -z+1/4 '
	 'x, z+1/2, y+1/2 '
	 '-x, -y, z '
	 'x+1/4, -z+1/4, y+1/4 '
	 'x+1/4, y+1/4, -z+1/4 '
	 'x+1/2, -y+1/2, -z '
	 'x+1/2, -z, -y+1/2 '
	 'x-1/4, -y+1/4, z-1/4 '
	 'x-1/4, z-1/4, -y+1/4 '
loop_
_atom_site_label
_atom_site_type_symbol
_atom_site_site_symmetry_multiplicity
_atom_site_fract_x
_atom_site_fract_y
_atom_site_fract_z
_atom_site_occupancy
_atom_site_B_iso_or_equiv
Si1 Si   8 0 0 0 1 0.4784115

loop_
_refln_index_h
_refln_index_k
_refln_index_l
_refln_d_spacing
_refln_F_squared_calc
_refln_F_squared_meas
   1    1    1    3.136152         2.87         2.97
   2    2    0    1.920493         5.68         5.66
   2    2    2    1.568076         0.00         0.00
   3    1    1    1.637802         4.88         4.79
   3    3    1    1.246180         3.55         3.73
   3    3    3    1.045384         0.89         0.90
   4    0    0    1.357993         1.99         2.00
   4    2    2    1.108797         5.95         6.03
   4    4    0    0.960246         2.27         2.29
   4    4    2    0.905329         0.00         0.00
   4    4    4    0.784038         0.91         0.94
   5    1    1    1.045384         2.68         2.71
   5    3    1    0.918171         4.11         4.09
   5    3    3    0.828368         1.59         1.65
   6    2    0    0.858870         3.50         3.53
   6    2    2    0.818901         0.00         0.00

data_phase_Al2O3_4
_pd_block_id Al2O3_4
_pd_block_diffractogram_id pattern_4

_pd_phase_name Al2O3_4
_cell_length_a 4.761482
_cell_length_b 4.761482
_cell_length_c 12.99914
_cell_angle_alpha 90
_cell_angle_beta 90
_cell_angle_gamma 120
_cell_volume 255.2287
_symmetry_space_group_name_H-M R-3cH
loop_
	_symmetry_equiv_pos_as_xyz
	 'x, y, z '
	 '-x, -y, -z '
	 '-x+y, -x, z '
	 '-x+y, y, z+1/2 '
	 '-y, -x, z+1/2 '
	 '-y, x-y, z '
	 'y, -x+y, -z '
	 'y, x, -z+1/2 '
	 'x-y, -y, -z+1/2 '
	 'x-y, x, -z '
	 '-x, -x+y, -z+1/2 '
	 'x, x-y, z+1/2 '
	 'x-1/3, y+1/3, z+1/3 '
	 '-x-1/3, -y+1/3, -z+1/3 '
	 '-x+y-1/3, -x+1/3, z+1/3 '
	 '-x+y-1/3, y+1/3, z-1/6 '
	 '-y-1/3, -x+1/3, z-1/6 '
	 '-y-1/3, x-y+1/3, z+1/3 '
	 'y-1/3, -x+y+1/3, -z+1/3 '
	 'y-1/3, x+1/3, -z-1/6 '
	 'x-y-1/3, -y+1/3, -z-1/6 '
	 'x-y-1/3, x+1/3, -z+1/3 '
	 '-x-1/3, -x+y+1/3, -z-1/6 '
	 'x-1/3, x-y+1/3, z-1/6 '
	 'x+1/3, y-1/3, z-1/3 '
	 '-x+1/3, -y-1/3, -z-1/3 '
	 '-x+y+1/3, -x-1/3, z-1/3 '
	 '-x+y+1/3, y-1/3, z+1/6 '
	 '-y+1/3, -x-1/3, z+1/6 '
	 '-y+1/3, x-y-1/3, z-1/3 '
	 'y+1/3, -x+y-1/3, -z-1/3 '
	 'y+1/3, x-1/3, -z+1/6 '
	 'x-y+1/3, -y-1/3, -z+1/6 '
	 'x-y+1/3, x-1/3, -z-1/3 '
	 '-x+1/3, -x+y-1/3, -z+1/6 '
	 'x+1/3, x-y-1/3, z+1/6 '
loop_
_atom_site_label
_atom_site_type_symbol
_atom_site_site_symmetry_multiplicity
_atom_site_fract_x
_atom_site_fract_y
_atom_site_fract_z
_atom_site_occupancy
_atom_site_B_iso_or_equiv
Al1 Al+3  12 0 0 0.148 1 0.3809322
O1 O-2  18 0.306 0 0.25 1 0.3809322

loop_
_refln_index_h
_refln_index_k
_refln_index_l
_refln_d_spacing
_refln_F_squared_calc
_refln_F_squared_meas
   0    0    6   2.166523         0.03         0.03
   0    0   12   1.083262         0.34         0.36
   1    0  -14   0.905830         0.80         0.87
   1    0   -8   1.511756         0.65         0.68
   1    0   -2   3.481929         0.78         0.78
   1    0    4   2.552403         2.30         2.38
   1    0   10   1.239771         2.45         2.48
   1    0   16   0.797122         0.30         0.31
   2   -1    0   2.380741         1.19         1.17
   2   -1    3   2.086538         4.20         4.34
   2   -1    6   1.602356         7.71         7.60
   2   -1    9   1.234865         1.26         1.31
   2   -1   12   0.985992         0.05         0.05
   2   -1   15   0.814336         0.46         0.46
   2    0  -10   1.099608         1.39         1.37
   2    0   -4   1.740964         3.16         3.12
   2    0    2   1.965272         0.07         0.07
   2    0    8   1.276202         0.19         0.21
   2    0   14   0.846619         0.96         1.03
   3   -1  -14   0.797683         1.44         1.46
   3   -1  -11   0.941661         0.06         0.07
   3   -1   -8   1.124788         0.46         0.45
   3   -1   -5   1.336758         0.15         0.14
   3   -1   -2   1.515596         0.30         0.29
   3   -1    1   1.547478         0.21         0.22
   3   -1    4   1.405304         4.18         4.15
   3   -1    7   1.193820         0.11         0.11
   3   -1   10   0.998271         2.58         2.61
   3   -1   13   0.841613         0.05         0.05
   3    0  -12   0.850801         0.50         0.49
   3    0   -6   1.160643         0.07         0.07
   3    0    0   1.374522         6.67         6.74
   3    0    6   1.160643         0.07         0.07
   3    0   12   0.850801         0.50         0.49
   4   -2    0   1.190371         1.05         1.05
   4   -2    3   1.147844         0.85         0.83
   4   -2    6   1.043269         3.42         3.43
   4   -2    9   0.918600         0.50         0.53
   4   -2   12   0.801178         0.02         0.03
   4   -1  -10   0.858652         2.54         2.66
   4   -1   -7   0.973809         0.03         0.03
   4   -1   -4   1.078815         1.66         1.65
   4   -1   -1   1.139270         0.05         0.05
   4   -1    2   1.126367         0.67         0.67
   4   -1    5   1.046857         0.04         0.04
   4   -1    8   0.935240         0.72         0.74
   4   -1   11   0.821826         0.02         0.02
   4    0   -8   0.870482         0.46         0.47
   4    0   -2   1.018164         0.46         0.46
   4    0    4   0.982636         0.45         0.48
   4    0   10   0.807724         1.33         1.40
   5   -2   -8   0.817547         0.09         0.08
   5   -2   -5   0.888987         0.08         0.08
   5   -2   -2   0.936147         0.03         0.03
   5   -2    1   0.943515         0.09         0.09
   5   -2    4   0.908309         2.36         2.51
   5   -2    7   0.842936         0.07         0.07
   5   -2   10   0.764900         0.91         0.97
   5   -1   -9   0.763743         0.28         0.30
   5   -1   -6   0.831009         1.81         1.82
   5   -1   -3   0.881038         0.39         0.39
   5   -1    0   0.899836         1.31         1.40
   5   -1    3   0.881038         0.39         0.39
   5   -1    6   0.831009         1.81         1.82
   5   -1    9   0.763743         0.28         0.30
   5    0   -4   0.799374         0.87         0.95
   5    0    2   0.818153         0.01         0.01
   6   -3    0   0.793580         1.70         1.74
   6   -3    3   0.780597         0.00         0.00
   6   -2   -1   0.777884         0.09         0.09
   6   -2    2   0.773739         0.10         0.11

data_phase_Si_4
_pd_block_id Si_4
_pd_block_diffractogram_id pattern_4

_pd_phase_name Si_4
_cell_length_a 5.432321
_cell_length_b 5.432321
_cell_length_c 5.432321
_cell_angle_alpha 90
_cell_angle_beta 90
_cell_angle_gamma 90
_cell_volume 160.3084
_symmetry_space_group_name_H-M Fd-3mS
loop_
	_symmetry_equiv_pos_as_xyz
	 'x, y, z '
	 '-x, z+1/2, -y+1/2 '
	 '-x+1/4, -y+1/4, -z+1/4 '
	 '-x+1/4, -z+1/4, -y+1/4 '
	 '-x+1/2, -z, y+1/2 '
	 '-x+1/2, y+1/2, -z '
	 '-x-1/4, z-1/4, y+1/4 '
	 '-x-1/4, y+1/4, z-1/4 '
	 '-y, -z+1/2, x+1/2 '
	 '-y, x+1/2, -z+1/2 '
	 '-y+1/4, -x+1/4, -z+1/4 '
	 '-y+1/4, -z+1/4, -x+1/4 '
	 '-y+1/2, -x, z+1/2 '
	 '-y+1/2, z+1/2, -x '
	 '-y-1/4, z+1/4, x-1/4 '
	 '-y-1/4, x-1/4, z+1/4 '
	 '-z, -x+1/2, y+1/2 '
	 '-z, y+1/2, -x+1/2 '
	 '-z+1/4, -x+1/4, -y+1/4 '
	 '-z+1/4, -y+1/4, -x+1/4 '
	 '-z+1/2, -y, x+1/2 '
	 '-z+1/2, x+1/2, -y '
	 '-z-1/4, y-1/4, x+1/4 '
	 '-z-1/4, x+1/4, y-1/4 '
	 'z, y, x '
	 'z, x, y '
	 'z+1/4, -y-1/4, x-1/4 '
	 'z+1/4, x-1/4, -y-1/4 '
	 'z+1/2, -x, -y+1/2 '
	 'z+1/2, -y+1/2, -x '
	 'z-1/4, -x-1/4, y+1/4 '
	 'z-1/4, y+1/4, -x-1/4 '
	 'y, z, x '
	 'y, x, z '
	 'y+1/4, -x-1/4, z-1/4 '
	 'y+1/4, z-1/4, -x-1/4 '
	 'y+1/2, -x+1/2, -z '
	 'y+1/2, -z, -x+1/2 '
	 'y-1/4, -z-1/4, x+1/4 '
	 'y-1/4, x+1/4, -z-1/4 '
	 'x, z, y '
	 '-x, -y+1/2, z+1/2 '
	 'x+1/4, -z-1/4, y-1/4 '
	 'x+1/4, y-1/4, -z-1/4 '
	 'x+1/2, -y, -z+1/2 '
	 'x+1/2, -z+1/2, -y '
	 'x-1/4, -y-1/4, z+1/4 '
	 'x-1/4, z+1/4, -y-1/4 '
	 'x+1/2, y+1/2, z '
	 '-x+1/2, z, -y+1/2 '
	 '-x-1/4, -y-1/4, -z+1/4 '
	 '-x-1/4, -z-1/4, -y+1/4 '
	 '-x, -z+1/2, y+1/2 '
	 '-x, y, -z '
	 '-x+1/4, z+1/4, y+1/4 '
	 '-x+1/4, y-1/4, z-1/4 '
	 '-y+1/2, -z, x+1/2 '
	 '-y+1/2, x, -z+1/2 '
	 '-y-1/4, -x-1/4, -z+1/4 '
	 '-y-1/4, -z-1/4, -x+1/4 '
	 '-y, -x+1/2, z+1/2 '
	 '-y, z, -x '
	 '-y+1/4, z-1/4, x-1/4 '
	 '-y+1/4, x+1/4, z+1/4 '
	 '-z+1/2, -x, y+1/2 '
	 '-z+1/2, y, -x+1/2 '
	 '-z-1/4, -x-1/4, -y+1/4 '
	 '-z-1/4, -y-1/4, -x+1/4 '
	 '-z, -y+1/2, x+1/2 '
	 '-z, x, -y '
	 '-z+1/4, y+1/4, x+1/4 '
	 '-z+1/4, x-1/4, y-1/4 '
	 'z+1/2, y+1/2, x '
	 'z+1/2, x+1/2, y '
	 'z-1/4, -y+1/4, x-1/4 '
	 'z-1/4, x+1/4, -y-1/4 '
	 'z, -x+1/2, -y+1/2 '
	 'z, -y, -x '
	 'z+1/4, -x+1/4, y+1/4 '
	 'z+1/4, y-1/4, -x-1/4 '
	 'y+1/2, z+1/2, x '
	 'y+1/2, x+1/2, z '
	 'y-1/4, -x+1/4, z-1/4 '
	 'y-1/4, z+1/4, -x-1/4 '
	 'y, -x, -z '
	 'y, -z+1/2, -x+1/2 '
	 'y+1/4, -z+1/4, x+1/4 '
	 'y+1/4, x-1/4, -z-1/4 '
	 'x+1/2, z+1/2, y '
	 '-x+1/2, -y, z+1/2 '
	 'x-1/4, -z+1/4, y-1/4 '
	 'x-1/4, y+1/4, -z-1/4 '
	 'x, -y+1/2, -z+1/2 '
	 'x, -z, -y '
	 'x+1/4, -y+1/4, z+1/4 '
	 'x+1/4, z-1/4, -y-1/4 '
	 'x+1/2, y, z+1/2 '
	 '-x+1/2, z+1/2, -y '
	 '-x-1/4, -y+1/4, -z-1/4 '
	 '-x-1/4, -z+1/4, -y-1/4 '
	 '-x, -z, y '
	 '-x, y+1/2, -z+1/2 '
	 '-x+1/4, z-1/4, y-1/4 '
	 '-x+1/4, y+1/4, z+1/4 '
	 '-y+1/2, -z+1/2, x '
	 '-y+1/2, x+1/2, -z '
	 '-y-1/4, -x+1/4, -z-1/4 '
	 '-y-1/4, -z+1/4, -x-1/4 '
	 '-y, -x, z '
	 '-y, z+1/2, -x+1/2 '
	 '-y+1/4, z+1/4, x+1/4 '
	 '-y+1/4, x-1/4, z-1/4 '
	 '-z+1/2, -x+1/2, y '
	 '-z+1/2, y+1/2, -x '
	 '-z-1/4, -x+1/4, -y-1/4 '
	 '-z-1/4, -y+1/4, -x-1/4 '
	 '-z, -y, x '
	 '-z, x+1/2, -y+1/2 '
	 '-z+1/4, y-1/4, x-1/4 '
	 '-z+1/4, x+1/4, y+1/4 '
	 'z+1/2, y, x+1/2 '
	 'z+1/2, x, y+1/2 '
	 'z-1/4, -y-1/4, x+1/4 '
	 'z-1/4, x-1/4, -y+1/4 '
	 'z, -x, -y '
	 'z, -y+1/2, -x+1/2 '
	 'z+1/4, -x-1/4, y-1/4 '
	 'z+1/4, y+1/4, -x+1/4 '
	 'y+1/2, z, x+1/2 '
	 'y+1/2, x, z+1/2 '
	 'y-1/4, -x-1/4, z+1/4 '
	 'y-1/4, z-1/4, -x+1/4 '
	 'y, -x+1/2, -z+1/2 '
	 'y, -z, -x '
	 'y+1/4, -z-1/4, x-1/4 '
	 'y+1/4, x+1/4, -z+1/4 '
	 'x+1/2, z, y+1/2 '
	 '-x+1/2, -y+1/2, z '
	 'x-1/4, -z-1/4, y+1/4 '
	 'x-1/4, y-1/4, -z+1/4 '
	 'x, -y, -z '
	 'x, -z+1/2, -y+1/2 '
	 'x+1/4, -y-1/4, z-1/4 '
	 'x+1/4, z+1/4, -y+1/4 '
	 'x, y+1/2, z+1/2 '
	 '-x, z, -y '
	 '-x+1/4, -y-1/4, -z-1/4 '
	 '-x+1/4, -z-1/4, -y-1/4 '
	 '-x+1/2, -z+1/2, y '
	 '-x+1/2, y, -z+1/2 '
	 '-x-1/4, z+1/4, y-1/4 '
	 '-x-1/4, y-1/4, z+1/4 '
	 '-y, -z, x '
	 '-y, x, -z '
	 '-y+1/4, -x-1/4, -z-1/4 '
	 '-y+1/4, -z-1/4, -x-1/4 '
	 '-y+1/2, -x+1/2, z '
	 '-y+1/2, z, -x+1/2 '
	 '-y-1/4, z-1/4, x+1/4 '
	 '-y-1/4, x+1/4, z-1/4 '
	 '-z, -x, y '
	 '-z, y, -x '
	 '-z+1/4, -x-1/4, -y-1/4 '
	 '-z+1/4, -y-1/4, -x-1/4 '
	 '-z+1/2, -y+1/2, x '
	 '-z+1/2, x, -y+1/2 '
	 '-z-1/4, y+1/4, x-1/4 '
	 '-z-1/4, x-1/4, y+1/4 '
	 'z, y+1/2, x+1/2 '
	 'z, x+1/2, y+1/2 '
	 'z+1/4, -y+1/4, x+1/4 '
	 'z+1/4, x+1/4, -y+1/4 '
	 'z+1/2, -x+1/2, -y '
	 'z+1/2, -y, -x+1/2 '
	 'z-1/4, -x+1/4, y-1/4 '
	 'z-1/4, y-1/4, -x+1/4 '
	 'y, z+1/2, x+1/2 '
	 'y, x+1/2, z+1/2 '
	 'y+1/4, -x+1/4, z+1/4 '
	 'y+1/4, z+1/4, -x+1/4 '
	 'y+1/2, -x, -z+1/2 '
	 'y+1/2, -z+1/2, -x '
	 'y-1/4, -z+1/4, x-1/4 '
	 'y-1/4, x-1/4, -z+1/4 '
	 'x, z+1/2, y+1/2 '
	 '-x, -y, z '
	 'x+1/4, -z+1/4, y+1/4 '
	 'x+1/4, y+1/4, -z+1/4 '
	 'x+1/2, -y+1/2, -z '
	 'x+1/2, -z, -y+1/2 '
	 'x-1/4, -y+1/4, z-1/4 '
	 'x-1/4, z-1/4, -y+1/4 '
loop_
_atom_site_label
_atom_site_type_symbol
_atom_site_site_symmetry_multiplicity
_atom_site_fract_x
_atom_site_fract_y
_atom_site_fract_z
_atom_site_occupancy
_atom_site_B_iso_or_equiv
Si1 Si   8 0 0 0 1 0.5049053


loop_
_refln_index_h
_refln_index_k
_refln_index_l
_refln_d_spacing
_refln_F_squared_calc
_refln_F_squared_meas
   1    1    1  3.136352         2.88         2.97
   2    2    0  1.920616         5.69         5.66
   2    2    2  1.568176         0.00         0.00
   3    1    1  1.637906         4.88         4.77
   3    3    1  1.246260         3.54         3.71
   3    3    3  1.045451         0.89         0.92
   4    0    0  1.358080         1.98         1.98
   4    2    2  1.108868         5.91         6.00
   4    4    0  0.960308         2.25         2.33
   4    4    2  0.905387         0.00         0.00
   4    4    4  0.784088         0.89         0.90
   5    1    1  1.045451         2.66         2.75
   5    3    1  0.918230         4.06         4.12
   5    3    3  0.828421         1.57         1.59
   6    2    0  0.858925         3.45         3.37
   6    2    2  0.818953         0.00         0.00


data_pattern_xray_0
_pd_block_id pattern_0
loop_
_pd_phase_id
_pd_phase_block_id
_pd_phase_mass_%
1	Al2O3_0	71.8628
2	Si_0	28.1372


_diffrn_ambient_temperature      30.00
loop_
_pd_meas_2theta_scan
_pd_meas_intensity_total
_pd_proc_ls_weight
_pd_calc_intensity_total
_pd_proc_intensity_bkg_calc
   5.001000      43.364000       0.040297      25.962702      25.962702  
   5.004000      38.007000       0.050546      26.168296      26.168296  
   5.007000      38.318000       0.046520      26.372352      26.372352  
  64.995000      15.051000       0.127242      14.962052      14.710515  
  64.998000      15.175000       0.120778      14.961416      14.706974  
  65.001000      22.783000       0.087726      14.960849      14.703426  

data_pattern_xray_1
_pd_block_id pattern_1
loop_
_pd_phase_id
_pd_phase_block_id
_pd_phase_mass_%
1	Al2O3_1	72.1170
2	Si_1	27.8830

_diffrn_ambient_temperature      50.00
loop_
_pd_meas_2theta_scan
_pd_meas_intensity_total
_pd_proc_ls_weight
_pd_calc_intensity_total
_pd_proc_intensity_bkg_calc
   5.001000      32.642000       0.057123      25.460419      25.460419  
   5.004000      56.206000       0.032117      25.669709      25.669709  
   5.007000      35.714000       0.051006      25.877411      25.877411  
  64.995000      17.635000       0.098039      15.601851      15.360830  
  64.998000      11.698000       0.144845      15.608650      15.364698  
  65.001000      22.961000       0.074141      15.615582      15.368622  

data_pattern_xray_2
_pd_block_id pattern_2
loop_
_pd_phase_id
_pd_phase_block_id
_pd_phase_mass_%
1	Al2O3_2	71.9301
2	Si_2	28.0699


_diffrn_ambient_temperature      70.00
loop_
_pd_meas_2theta_scan
_pd_meas_intensity_total
_pd_proc_ls_weight
_pd_calc_intensity_total
_pd_proc_intensity_bkg_calc
   5.001000      35.107000       0.054704      27.253319      27.253319  
   5.004000      46.356000       0.039780      27.447740      27.447740  
   5.007000      41.431000       0.049266      27.640676      27.640676  
  64.995000      22.749000       0.087659      15.971372      15.714291  
  64.998000      16.512000       0.113438      15.975181      15.714849  
  65.001000      19.584000       0.099208      15.979090      15.715421  

data_pattern_xray_3
_pd_block_id pattern_3
loop_
_pd_phase_id
_pd_phase_block_id
_pd_phase_mass_%
1	Al2O3_3	71.8583
2	Si_3	28.1417

_diffrn_ambient_temperature      90.00
loop_
_pd_meas_2theta_scan
_pd_meas_intensity_total
_pd_proc_ls_weight
_pd_calc_intensity_total
_pd_proc_intensity_bkg_calc
   5.001000      41.750000       0.044928      26.916388      26.916388  
   5.004000      48.871000       0.039760      27.113463      27.113463  
   5.007000      39.451000       0.045794      27.309035      27.309035  
  64.995000      17.895000       0.111366      15.729231      15.473798  
  64.998000      10.684000       0.179268      15.733392      15.474594  
  65.001000      12.077000       0.167759      15.737666      15.475412  

data_pattern_xray_4
_pd_block_id pattern_4
loop_
_pd_phase_id
_pd_phase_block_id
_pd_phase_mass_%
Corundum	Al2O3_4	72.1260
Silicon	Si_4	27.8740

_diffrn_ambient_temperature      110.00
loop_
_pd_meas_2theta_scan
_pd_meas_intensity_total
_pd_proc_ls_weight
_pd_calc_intensity_total
_pd_proc_intensity_bkg_calc
   5.001000      40.456000       0.046708      26.312739      26.312739  
   5.004000      42.398000       0.046320      26.507469      26.507469  
   5.007000      42.877000       0.043152      26.700732      26.700732  
  64.995000      17.739000       0.109938      16.313311      16.043457  
  64.998000      20.664000       0.098715      16.315844      16.042285  
  65.001000      18.246000       0.096754      16.318486      16.041120  
