data_NISI_publ

_pd_block_id
  2002-12-22T17:32|NISI|Brian_H._Toby|Overall

_audit_creation_method  "from EXP file using GSAS2CIF"
_audit_creation_date                   2002-12-22T17:32
_audit_author_name                     "Brian H. Toby"
_audit_update_record
; 2002-12-22T17:32  Initial CIF as created by GSAS2CIF
;

#=============================================================================
# this information describes the project, paper etc. for the CIF             #
# Acta Cryst. Section C papers and editorial correspondence is generated     #
# from the information in this section                                       #
#                                                                            #
#   (from)   CIF submission form for Rietveld refinements (Acta Cryst. C)    #
#                                                 Version 14 December 1998   #
#=============================================================================
# 1. SUBMISSION DETAILS

_publ_contact_author_name            ?   # Name of author for correspondence
_publ_contact_author_address             # Address of author for correspondence
; ?
;
_publ_contact_author_email           ?
_publ_contact_author_fax             ?
_publ_contact_author_phone           ?

_publ_contact_letter
; ?
;

_publ_requested_journal              ?
_publ_requested_coeditor_name        ?
_publ_requested_category             ?   # Acta C: one of CI/CM/CO/FI/FM/FO

#==============================================================================

# 2. PROCESSING SUMMARY (IUCr Office Use Only)

_journal_data_validation_number      ?

_journal_date_recd_electronic        ?
_journal_date_to_coeditor            ?
_journal_date_from_coeditor          ?
_journal_date_accepted               ?
_journal_date_printers_first         ?
_journal_date_printers_final         ?
_journal_date_proofs_out             ?
_journal_date_proofs_in              ?
_journal_coeditor_name               ?
_journal_coeditor_code               ?
_journal_coeditor_notes
; ?
;
_journal_techeditor_code             ?
_journal_techeditor_notes
; ?
;
_journal_coden_ASTM                  ?
_journal_name_full                   ?
_journal_year                        ?
_journal_volume                      ?
_journal_issue                       ?
_journal_page_first                  ?
_journal_page_last                   ?
_journal_paper_category              ?
_journal_suppl_publ_number           ?
_journal_suppl_publ_pages            ?

#==============================================================================

# 3. TITLE AND AUTHOR LIST

_publ_section_title
; ?
;
_publ_section_title_footnote
; ?
;

# The loop structure below should contain the names and addresses of all
# authors, in the required order of publication. Repeat as necessary.

loop_
	_publ_author_name
        _publ_author_footnote
	_publ_author_address
 ?                                   #<--'Last name, first name'
; ?
;
; ?
;

#==============================================================================

# 4. TEXT

_publ_section_synopsis
;  ?
;
_publ_section_abstract
; ?
;
_publ_section_comment
; ?
;
_publ_section_exptl_prep      # Details of the preparation of the sample(s)
                              # should be given here.
; ?
;
_publ_section_exptl_refinement
; ?
;
_publ_section_references
; ?
;
_publ_section_figure_captions
; ?
;
_publ_section_acknowledgements
; ?
;

#=============================================================================
# 5. OVERALL REFINEMENT & COMPUTING DETAILS

_refine_special_details
; ?
;
_pd_proc_ls_special_details
; ?
;

# The following items are used to identify the programs used.
_computing_molecular_graphics     ?
_computing_publication_material   ?

_refine_ls_weighting_scheme       ?
_refine_ls_weighting_details      ?
_refine_ls_hydrogen_treatment     ?
_refine_ls_extinction_method      ?
_refine_ls_extinction_coef        ?
_refine_ls_number_constraints     ?

_refine_ls_restrained_S_all       ?
_refine_ls_restrained_S_obs       ?

#==============================================================================
# 6. SAMPLE PREPARATION DATA

# (In the unusual case where multiple samples are used in a single
#  Rietveld study, this information should be moved into the phase
#  blocks)

# The following three fields describe the preparation of the material.
# The cooling rate is in K/min.  The pressure at which the sample was
# prepared is in kPa.  The temperature of preparation is in K.

_pd_prep_cool_rate                ?
_pd_prep_pressure                 ?
_pd_prep_temperature              ?

_pd_char_colour                   ?       # use ICDD colour descriptions
data_NISI_overall

_refine_ls_shift/su_max                0.08
_refine_ls_shift/su_mean               0.00
_computing_structure_refinement        GSAS
_refine_ls_number_parameters           33
_refine_ls_goodness_of_fit_all         1.50
_refine_ls_number_restraints           0

# Overall powder R-factors

_pd_proc_ls_prof_R_factor              0.0271
_pd_proc_ls_prof_wR_factor             0.0370
_refine_ls_matrix_type                 full

# pointers to the phase blocks
loop_   _pd_phase_block_id
      2002-12-22T17:32|NISI_phase1|Brian_H._Toby||
      2002-12-22T17:32|NISI_phase2|Brian_H._Toby||
# pointers to the diffraction patterns
loop_   _pd_block_diffractogram_id
      2002-12-22T17:32|NISI_H_01|Brian_H._Toby|GPD
      2002-12-22T17:32|NISI_H_02|Brian_H._Toby|GPD

# Information for phase 1
data_NISI_phase_1

_pd_block_id
  2002-12-22T17:32|NISI_phase1|Brian_H._Toby||

# Histograms for phase 1
loop_   _pd_block_diffractogram_id
  2002-12-22T17:32|NISI_H_01|Brian_H._Toby|GPD
  2002-12-22T17:32|NISI_H_02|Brian_H._Toby|GPD

#==============================================================================
# 7. CHEMICAL, STRUCTURAL AND CRYSTAL DATA

_pd_char_particle_morphology      ?

_chemical_name_systematic
; ?
;
_chemical_name_common             ?
_chemical_formula_moiety          ?
_chemical_formula_structural      ?
_chemical_formula_analytical      ?
_chemical_melting_point           ?
_chemical_compound_source         ?       # for minerals and
                                          # natural products
_symmetry_space_group_name_Hall   ?

_cell_measurement_temperature     ?

_cell_special_details
; ?
;

_geom_special_details             ?

# The following item identifies the program(s) used (if appropriate).
_computing_structure_solution     ?

#==============================================================================

# 8. Phase information from GSAS

_pd_phase_name                         i				
_cell_length_a                         3.523433(29)
_cell_length_b                         3.523433
_cell_length_c                         3.523433
_cell_angle_alpha                      90.0
_cell_angle_beta                       90.0
_cell_angle_gamma                      90.0
_cell_volume                           43.74194
_symmetry_cell_setting                 cubic
_symmetry_space_group_name_H-M         "F m 3 m				"
loop_ _symmetry_equiv_pos_site_id _symmetry_equiv_pos_as_xyz
       1 +x,+y,+z 
       2 +z,+x,+y 
       3 +y,+z,+x 
       4 +x,+y,-z 
       5 -z,+x,+y 
       6 +y,-z,+x 
       7 -z,+x,-y 
       8 -y,-z,+x 
       9 +y,-z,-x 
      10 -x,+y,-z 
      11 -z,-x,+y 
      12 +x,-y,-z 
      13 +y,+x,+z 
      14 +z,+y,+x 
      15 +x,+z,+y 
      16 +y,+x,-z 
      17 -z,+y,+x 
      18 +x,-z,+y 
      19 -z,+y,-x 
      20 -x,-z,+y 
      21 +x,-z,-y 
      22 -y,+x,-z 
      23 -z,-y,+x 
      24 +y,-x,-z 
      -1 -x,-y,-z 
      -2 -z,-x,-y 
      -3 -y,-z,-x 
      -4 -x,-y,+z 
      -5 +z,-x,-y 
      -6 -y,+z,-x 
      -7 +z,-x,+y 
      -8 +y,+z,-x 
      -9 -y,+z,+x 
     -10 +x,-y,+z 
     -11 +z,+x,-y 
     -12 -x,+y,+z 
     -13 -y,-x,-z 
     -14 -z,-y,-x 
     -15 -x,-z,-y 
     -16 -y,-x,+z 
     -17 +z,-y,-x 
     -18 -x,+z,-y 
     -19 +z,-y,+x 
     -20 +x,+z,-y 
     -21 -x,+z,+y 
     -22 +y,-x,+z 
     -23 +z,+y,-x 
     -24 -y,+x,+z 
     101 +x,+y+1/2,+z+1/2 
     102 +z,+x+1/2,+y+1/2 
     103 +y,+z+1/2,+x+1/2 
     104 +x,+y+1/2,-z+1/2 
     105 -z,+x+1/2,+y+1/2 
     106 +y,-z+1/2,+x+1/2 
     107 -z,+x+1/2,-y+1/2 
     108 -y,-z+1/2,+x+1/2 
     109 +y,-z+1/2,-x+1/2 
     110 -x,+y+1/2,-z+1/2 
     111 -z,-x+1/2,+y+1/2 
     112 +x,-y+1/2,-z+1/2 
     113 +y,+x+1/2,+z+1/2 
     114 +z,+y+1/2,+x+1/2 
     115 +x,+z+1/2,+y+1/2 
     116 +y,+x+1/2,-z+1/2 
     117 -z,+y+1/2,+x+1/2 
     118 +x,-z+1/2,+y+1/2 
     119 -z,+y+1/2,-x+1/2 
     120 -x,-z+1/2,+y+1/2 
     121 +x,-z+1/2,-y+1/2 
     122 -y,+x+1/2,-z+1/2 
     123 -z,-y+1/2,+x+1/2 
     124 +y,-x+1/2,-z+1/2 
    -101 -x,-y+1/2,-z+1/2 
    -102 -z,-x+1/2,-y+1/2 
    -103 -y,-z+1/2,-x+1/2 
    -104 -x,-y+1/2,+z+1/2 
    -105 +z,-x+1/2,-y+1/2 
    -106 -y,+z+1/2,-x+1/2 
    -107 +z,-x+1/2,+y+1/2 
    -108 +y,+z+1/2,-x+1/2 
    -109 -y,+z+1/2,+x+1/2 
    -110 +x,-y+1/2,+z+1/2 
    -111 +z,+x+1/2,-y+1/2 
    -112 -x,+y+1/2,+z+1/2 
    -113 -y,-x+1/2,-z+1/2 
    -114 -z,-y+1/2,-x+1/2 
    -115 -x,-z+1/2,-y+1/2 
    -116 -y,-x+1/2,+z+1/2 
    -117 +z,-y+1/2,-x+1/2 
    -118 -x,+z+1/2,-y+1/2 
    -119 +z,-y+1/2,+x+1/2 
    -120 +x,+z+1/2,-y+1/2 
    -121 -x,+z+1/2,+y+1/2 
    -122 +y,-x+1/2,+z+1/2 
    -123 +z,+y+1/2,-x+1/2 
    -124 -y,+x+1/2,+z+1/2 
     201 +x+1/2,+y,+z+1/2 
     202 +z+1/2,+x,+y+1/2 
     203 +y+1/2,+z,+x+1/2 
     204 +x+1/2,+y,-z+1/2 
     205 -z+1/2,+x,+y+1/2 
     206 +y+1/2,-z,+x+1/2 
     207 -z+1/2,+x,-y+1/2 
     208 -y+1/2,-z,+x+1/2 
     209 +y+1/2,-z,-x+1/2 
     210 -x+1/2,+y,-z+1/2 
     211 -z+1/2,-x,+y+1/2 
     212 +x+1/2,-y,-z+1/2 
     213 +y+1/2,+x,+z+1/2 
     214 +z+1/2,+y,+x+1/2 
     215 +x+1/2,+z,+y+1/2 
     216 +y+1/2,+x,-z+1/2 
     217 -z+1/2,+y,+x+1/2 
     218 +x+1/2,-z,+y+1/2 
     219 -z+1/2,+y,-x+1/2 
     220 -x+1/2,-z,+y+1/2 
     221 +x+1/2,-z,-y+1/2 
     222 -y+1/2,+x,-z+1/2 
     223 -z+1/2,-y,+x+1/2 
     224 +y+1/2,-x,-z+1/2 
    -201 -x+1/2,-y,-z+1/2 
    -202 -z+1/2,-x,-y+1/2 
    -203 -y+1/2,-z,-x+1/2 
    -204 -x+1/2,-y,+z+1/2 
    -205 +z+1/2,-x,-y+1/2 
    -206 -y+1/2,+z,-x+1/2 
    -207 +z+1/2,-x,+y+1/2 
    -208 +y+1/2,+z,-x+1/2 
    -209 -y+1/2,+z,+x+1/2 
    -210 +x+1/2,-y,+z+1/2 
    -211 +z+1/2,+x,-y+1/2 
    -212 -x+1/2,+y,+z+1/2 
    -213 -y+1/2,-x,-z+1/2 
    -214 -z+1/2,-y,-x+1/2 
    -215 -x+1/2,-z,-y+1/2 
    -216 -y+1/2,-x,+z+1/2 
    -217 +z+1/2,-y,-x+1/2 
    -218 -x+1/2,+z,-y+1/2 
    -219 +z+1/2,-y,+x+1/2 
    -220 +x+1/2,+z,-y+1/2 
    -221 -x+1/2,+z,+y+1/2 
    -222 +y+1/2,-x,+z+1/2 
    -223 +z+1/2,+y,-x+1/2 
    -224 -y+1/2,+x,+z+1/2 
     301 +x+1/2,+y+1/2,+z 
     302 +z+1/2,+x+1/2,+y 
     303 +y+1/2,+z+1/2,+x 
     304 +x+1/2,+y+1/2,-z 
     305 -z+1/2,+x+1/2,+y 
     306 +y+1/2,-z+1/2,+x 
     307 -z+1/2,+x+1/2,-y 
     308 -y+1/2,-z+1/2,+x 
     309 +y+1/2,-z+1/2,-x 
     310 -x+1/2,+y+1/2,-z 
     311 -z+1/2,-x+1/2,+y 
     312 +x+1/2,-y+1/2,-z 
     313 +y+1/2,+x+1/2,+z 
     314 +z+1/2,+y+1/2,+x 
     315 +x+1/2,+z+1/2,+y 
     316 +y+1/2,+x+1/2,-z 
     317 -z+1/2,+y+1/2,+x 
     318 +x+1/2,-z+1/2,+y 
     319 -z+1/2,+y+1/2,-x 
     320 -x+1/2,-z+1/2,+y 
     321 +x+1/2,-z+1/2,-y 
     322 -y+1/2,+x+1/2,-z 
     323 -z+1/2,-y+1/2,+x 
     324 +y+1/2,-x+1/2,-z 
    -301 -x+1/2,-y+1/2,-z 
    -302 -z+1/2,-x+1/2,-y 
    -303 -y+1/2,-z+1/2,-x 
    -304 -x+1/2,-y+1/2,+z 
    -305 +z+1/2,-x+1/2,-y 
    -306 -y+1/2,+z+1/2,-x 
    -307 +z+1/2,-x+1/2,+y 
    -308 +y+1/2,+z+1/2,-x 
    -309 -y+1/2,+z+1/2,+x 
    -310 +x+1/2,-y+1/2,+z 
    -311 +z+1/2,+x+1/2,-y 
    -312 -x+1/2,+y+1/2,+z 
    -313 -y+1/2,-x+1/2,-z 
    -314 -z+1/2,-y+1/2,-x 
    -315 -x+1/2,-z+1/2,-y 
    -316 -y+1/2,-x+1/2,+z 
    -317 +z+1/2,-y+1/2,-x 
    -318 -x+1/2,+z+1/2,-y 
    -319 +z+1/2,-y+1/2,+x 
    -320 +x+1/2,+z+1/2,-y 
    -321 -x+1/2,+z+1/2,+y 
    -322 +y+1/2,-x+1/2,+z 
    -323 +z+1/2,+y+1/2,-x 
    -324 -y+1/2,+x+1/2,+z 

# ATOMIC COORDINATES AND DISPLACEMENT PARAMETERS


loop_
      _atom_site_type_symbol
      _atom_site_label
      _atom_site_fract_x
      _atom_site_fract_y
      _atom_site_fract_z
      _atom_site_occupancy
      _atom_site_thermal_displace_type
      _atom_site_U_iso_or_equiv
      _atom_site_symmetry_multiplicity
NI      
Nickel  0.0          0.0          0.0          1.0        Uiso   0.00435(10)   4

loop_ _atom_type_symbol
      _atom_type_number_in_cell
                   NI  4.0        
 
# If you change Z, be sure to change all 3 of the following
_chemical_formula_sum                  Ni
_chemical_formula_weight               58.71
_cell_formula_units_Z                  4

# MOLECULAR GEOMETRY

loop_
      _geom_bond_atom_site_label_1
      _geom_bond_atom_site_label_2
      _geom_bond_distance
      _geom_bond_site_symmetry_1
      _geom_bond_site_symmetry_2
      _geom_bond_publ_flag
   ?   ?   ?   ?   ?   ?

loop_
      _geom_angle_atom_site_label_1
      _geom_angle_atom_site_label_2
      _geom_angle_atom_site_label_3
      _geom_angle
      _geom_angle_site_symmetry_1
      _geom_angle_site_symmetry_2
      _geom_angle_site_symmetry_3
      _geom_angle_publ_flag
   ?   ?   ?   ?   ?   ?   ?   ?

# Information for phase 2
data_NISI_phase_2

_pd_block_id
  2002-12-22T17:32|NISI_phase2|Brian_H._Toby||

# Histograms for phase 2
loop_   _pd_block_diffractogram_id
  2002-12-22T17:32|NISI_H_01|Brian_H._Toby|GPD
  2002-12-22T17:32|NISI_H_02|Brian_H._Toby|GPD

#==============================================================================
# 7. CHEMICAL, STRUCTURAL AND CRYSTAL DATA

_pd_char_particle_morphology      ?

_chemical_name_systematic
; ?
;
_chemical_name_common             ?
_chemical_formula_moiety          ?
_chemical_formula_structural      ?
_chemical_formula_analytical      ?
_chemical_melting_point           ?
_chemical_compound_source         ?       # for minerals and
                                          # natural products
_symmetry_space_group_name_Hall   ?

_cell_measurement_temperature     ?

_cell_special_details
; ?
;

_geom_special_details             ?

# The following item identifies the program(s) used (if appropriate).
_computing_structure_solution     ?

#==============================================================================

# 8. Phase information from GSAS

_pd_phase_name                         Silicon		
_cell_length_a                         5.42957(9)
_cell_length_b                         5.42957
_cell_length_c                         5.42957
_cell_angle_alpha                      90.0
_cell_angle_beta                       90.0
_cell_angle_gamma                      90.0
_cell_volume                           160.06508
_symmetry_cell_setting                 cubic
_symmetry_space_group_name_H-M         "F d 3 m		"
loop_ _symmetry_equiv_pos_site_id _symmetry_equiv_pos_as_xyz
       1 +x,+y,+z 
       2 +z,+x,+y 
       3 +y,+z,+x 
       4 +x+1/4,+y+1/4,-z 
       5 -z,+x+1/4,+y+1/4 
       6 +y+1/4,-z,+x+1/4 
       7 -z+1/4,+x+1/2,-y+3/4 
       8 -y+3/4,-z+1/4,+x+1/2 
       9 +y+1/2,-z+1/4,-x+3/4 
      10 -x+3/4,+y+1/2,-z+1/4 
      11 -z+1/4,-x+3/4,+y+1/2 
      12 +x+1/2,-y+3/4,-z+1/4 
      13 +y,+x,+z 
      14 +z,+y,+x 
      15 +x,+z,+y 
      16 +y+1/4,+x+1/4,-z 
      17 -z,+y+1/4,+x+1/4 
      18 +x+1/4,-z,+y+1/4 
      19 -z+1/4,+y+1/2,-x+3/4 
      20 -x+3/4,-z+1/4,+y+1/2 
      21 +x+1/2,-z+1/4,-y+3/4 
      22 -y+3/4,+x+1/2,-z+1/4 
      23 -z+1/4,-y+3/4,+x+1/2 
      24 +y+1/2,-x+3/4,-z+1/4 
      -1 -x,-y,-z 
      -2 -z,-x,-y 
      -3 -y,-z,-x 
      -4 -x+3/4,-y+3/4,+z 
      -5 +z,-x+3/4,-y+3/4 
      -6 -y+3/4,+z,-x+3/4 
      -7 +z+3/4,-x+1/2,+y+1/4 
      -8 +y+1/4,+z+3/4,-x+1/2 
      -9 -y+1/2,+z+3/4,+x+1/4 
     -10 +x+1/4,-y+1/2,+z+3/4 
     -11 +z+3/4,+x+1/4,-y+1/2 
     -12 -x+1/2,+y+1/4,+z+3/4 
     -13 -y,-x,-z 
     -14 -z,-y,-x 
     -15 -x,-z,-y 
     -16 -y+3/4,-x+3/4,+z 
     -17 +z,-y+3/4,-x+3/4 
     -18 -x+3/4,+z,-y+3/4 
     -19 +z+3/4,-y+1/2,+x+1/4 
     -20 +x+1/4,+z+3/4,-y+1/2 
     -21 -x+1/2,+z+3/4,+y+1/4 
     -22 +y+1/4,-x+1/2,+z+3/4 
     -23 +z+3/4,+y+1/4,-x+1/2 
     -24 -y+1/2,+x+1/4,+z+3/4 
     101 +x,+y+1/2,+z+1/2 
     102 +z,+x+1/2,+y+1/2 
     103 +y,+z+1/2,+x+1/2 
     104 +x+1/4,+y+3/4,-z+1/2 
     105 -z,+x+3/4,+y+3/4 
     106 +y+1/4,-z+1/2,+x+3/4 
     107 -z+1/4,+x,-y+1/4 
     108 -y+3/4,-z+3/4,+x 
     109 +y+1/2,-z+3/4,-x+1/4 
     110 -x+3/4,+y,-z+3/4 
     111 -z+1/4,-x+1/4,+y 
     112 +x+1/2,-y+1/4,-z+3/4 
     113 +y,+x+1/2,+z+1/2 
     114 +z,+y+1/2,+x+1/2 
     115 +x,+z+1/2,+y+1/2 
     116 +y+1/4,+x+3/4,-z+1/2 
     117 -z,+y+3/4,+x+3/4 
     118 +x+1/4,-z+1/2,+y+3/4 
     119 -z+1/4,+y,-x+1/4 
     120 -x+3/4,-z+3/4,+y 
     121 +x+1/2,-z+3/4,-y+1/4 
     122 -y+3/4,+x,-z+3/4 
     123 -z+1/4,-y+1/4,+x 
     124 +y+1/2,-x+1/4,-z+3/4 
    -101 -x,-y+1/2,-z+1/2 
    -102 -z,-x+1/2,-y+1/2 
    -103 -y,-z+1/2,-x+1/2 
    -104 -x+3/4,-y+1/4,+z+1/2 
    -105 +z,-x+1/4,-y+1/4 
    -106 -y+3/4,+z+1/2,-x+1/4 
    -107 +z+3/4,-x,+y+3/4 
    -108 +y+1/4,+z+1/4,-x 
    -109 -y+1/2,+z+1/4,+x+3/4 
    -110 +x+1/4,-y,+z+1/4 
    -111 +z+3/4,+x+3/4,-y 
    -112 -x+1/2,+y+3/4,+z+1/4 
    -113 -y,-x+1/2,-z+1/2 
    -114 -z,-y+1/2,-x+1/2 
    -115 -x,-z+1/2,-y+1/2 
    -116 -y+3/4,-x+1/4,+z+1/2 
    -117 +z,-y+1/4,-x+1/4 
    -118 -x+3/4,+z+1/2,-y+1/4 
    -119 +z+3/4,-y,+x+3/4 
    -120 +x+1/4,+z+1/4,-y 
    -121 -x+1/2,+z+1/4,+y+3/4 
    -122 +y+1/4,-x,+z+1/4 
    -123 +z+3/4,+y+3/4,-x 
    -124 -y+1/2,+x+3/4,+z+1/4 
     201 +x+1/2,+y,+z+1/2 
     202 +z+1/2,+x,+y+1/2 
     203 +y+1/2,+z,+x+1/2 
     204 +x+3/4,+y+1/4,-z+1/2 
     205 -z+1/2,+x+1/4,+y+3/4 
     206 +y+3/4,-z,+x+3/4 
     207 -z+3/4,+x+1/2,-y+1/4 
     208 -y+1/4,-z+1/4,+x 
     209 +y,-z+1/4,-x+1/4 
     210 -x+1/4,+y+1/2,-z+3/4 
     211 -z+3/4,-x+3/4,+y 
     212 +x,-y+3/4,-z+3/4 
     213 +y+1/2,+x,+z+1/2 
     214 +z+1/2,+y,+x+1/2 
     215 +x+1/2,+z,+y+1/2 
     216 +y+3/4,+x+1/4,-z+1/2 
     217 -z+1/2,+y+1/4,+x+3/4 
     218 +x+3/4,-z,+y+3/4 
     219 -z+3/4,+y+1/2,-x+1/4 
     220 -x+1/4,-z+1/4,+y 
     221 +x,-z+1/4,-y+1/4 
     222 -y+1/4,+x+1/2,-z+3/4 
     223 -z+3/4,-y+3/4,+x 
     224 +y,-x+3/4,-z+3/4 
    -201 -x+1/2,-y,-z+1/2 
    -202 -z+1/2,-x,-y+1/2 
    -203 -y+1/2,-z,-x+1/2 
    -204 -x+1/4,-y+3/4,+z+1/2 
    -205 +z+1/2,-x+3/4,-y+1/4 
    -206 -y+1/4,+z,-x+1/4 
    -207 +z+1/4,-x+1/2,+y+3/4 
    -208 +y+3/4,+z+3/4,-x 
    -209 -y,+z+3/4,+x+3/4 
    -210 +x+3/4,-y+1/2,+z+1/4 
    -211 +z+1/4,+x+1/4,-y 
    -212 -x,+y+1/4,+z+1/4 
    -213 -y+1/2,-x,-z+1/2 
    -214 -z+1/2,-y,-x+1/2 
    -215 -x+1/2,-z,-y+1/2 
    -216 -y+1/4,-x+3/4,+z+1/2 
    -217 +z+1/2,-y+3/4,-x+1/4 
    -218 -x+1/4,+z,-y+1/4 
    -219 +z+1/4,-y+1/2,+x+3/4 
    -220 +x+3/4,+z+3/4,-y 
    -221 -x,+z+3/4,+y+3/4 
    -222 +y+3/4,-x+1/2,+z+1/4 
    -223 +z+1/4,+y+1/4,-x 
    -224 -y,+x+1/4,+z+1/4 
     301 +x+1/2,+y+1/2,+z 
     302 +z+1/2,+x+1/2,+y 
     303 +y+1/2,+z+1/2,+x 
     304 +x+3/4,+y+3/4,-z 
     305 -z+1/2,+x+3/4,+y+1/4 
     306 +y+3/4,-z+1/2,+x+1/4 
     307 -z+3/4,+x,-y+3/4 
     308 -y+1/4,-z+3/4,+x+1/2 
     309 +y,-z+3/4,-x+3/4 
     310 -x+1/4,+y,-z+1/4 
     311 -z+3/4,-x+1/4,+y+1/2 
     312 +x,-y+1/4,-z+1/4 
     313 +y+1/2,+x+1/2,+z 
     314 +z+1/2,+y+1/2,+x 
     315 +x+1/2,+z+1/2,+y 
     316 +y+3/4,+x+3/4,-z 
     317 -z+1/2,+y+3/4,+x+1/4 
     318 +x+3/4,-z+1/2,+y+1/4 
     319 -z+3/4,+y,-x+3/4 
     320 -x+1/4,-z+3/4,+y+1/2 
     321 +x,-z+3/4,-y+3/4 
     322 -y+1/4,+x,-z+1/4 
     323 -z+3/4,-y+1/4,+x+1/2 
     324 +y,-x+1/4,-z+1/4 
    -301 -x+1/2,-y+1/2,-z 
    -302 -z+1/2,-x+1/2,-y 
    -303 -y+1/2,-z+1/2,-x 
    -304 -x+1/4,-y+1/4,+z 
    -305 +z+1/2,-x+1/4,-y+3/4 
    -306 -y+1/4,+z+1/2,-x+3/4 
    -307 +z+1/4,-x,+y+1/4 
    -308 +y+3/4,+z+1/4,-x+1/2 
    -309 -y,+z+1/4,+x+1/4 
    -310 +x+3/4,-y,+z+3/4 
    -311 +z+1/4,+x+3/4,-y+1/2 
    -312 -x,+y+3/4,+z+3/4 
    -313 -y+1/2,-x+1/2,-z 
    -314 -z+1/2,-y+1/2,-x 
    -315 -x+1/2,-z+1/2,-y 
    -316 -y+1/4,-x+1/4,+z 
    -317 +z+1/2,-y+1/4,-x+3/4 
    -318 -x+1/4,+z+1/2,-y+3/4 
    -319 +z+1/4,-y,+x+1/4 
    -320 +x+3/4,+z+1/4,-y+1/2 
    -321 -x,+z+1/4,+y+1/4 
    -322 +y+3/4,-x,+z+3/4 
    -323 +z+1/4,+y+3/4,-x+1/2 
    -324 -y,+x+3/4,+z+3/4 

# ATOMIC COORDINATES AND DISPLACEMENT PARAMETERS


loop_
      _atom_site_type_symbol
      _atom_site_label
      _atom_site_fract_x
      _atom_site_fract_y
      _atom_site_fract_z
      _atom_site_occupancy
      _atom_site_thermal_displace_type
      _atom_site_U_iso_or_equiv
      _atom_site_symmetry_multiplicity
SI      
Silicon  0.125        0.125        0.125        1.0        Uiso   0.00540(21)   8

loop_ _atom_type_symbol
      _atom_type_number_in_cell
                   SI  8.0        
 
# If you change Z, be sure to change all 3 of the following
_chemical_formula_sum                  Si
_chemical_formula_weight               28.09
_cell_formula_units_Z                  8

# MOLECULAR GEOMETRY

loop_
      _geom_bond_atom_site_label_1
      _geom_bond_atom_site_label_2
      _geom_bond_distance
      _geom_bond_site_symmetry_1
      _geom_bond_site_symmetry_2
      _geom_bond_publ_flag
  Silicon   Silicon       2.351070(30)  .      4_555  n
  Silicon   Silicon       2.351070(30)  .      5_555  n
  Silicon   Silicon       2.351070(30)  .      6_555  n
  Silicon   Silicon       2.351070(30)  .     -1_555  n

loop_
      _geom_angle_atom_site_label_1
      _geom_angle_atom_site_label_2
      _geom_angle_atom_site_label_3
      _geom_angle
      _geom_angle_site_symmetry_1
      _geom_angle_site_symmetry_2
      _geom_angle_site_symmetry_3
      _geom_angle_publ_flag
  Silicon   Silicon   Silicon        109.4712(6)      4_555  .      5_555  n
  Silicon   Silicon   Silicon        109.4712(6)      4_555  .      6_555  n
  Silicon   Silicon   Silicon       109.4712(12)      4_555  .     -1_555  n
  Silicon   Silicon   Silicon       109.4712(12)      5_555  .      6_555  n
  Silicon   Silicon   Silicon        109.4712(6)      5_555  .     -1_555  n
  Silicon   Silicon   Silicon        109.4712(6)      6_555  .     -1_555  n

# Powder diffraction data for histogram  1
data_NISI_p_01

_pd_block_id
  2002-12-22T17:32|NISI_H_01|Brian_H._Toby|GPD
#==============================================================================
# 9. INSTRUMENT CHARACTERIZATION

_exptl_special_details
; ?
;

# if regions of the data are excluded, the reason(s) are supplied here:
_pd_proc_info_excluded_regions
; ?
;

# The following item is used to identify the equipment used to record
# the powder pattern when the diffractogram was measured at a laboratory
# other than the authors' home institution, e.g. when neutron or synchrotron
# radiation is used.

_pd_instr_location
; ?
;
_pd_calibration_special_details           # description of the method used
                                          # to calibrate the instrument
; ?
;

_diffrn_ambient_temperature       ?
_diffrn_source                    ?
_diffrn_source_target             ?
_diffrn_source_type               ?
_diffrn_measurement_device_type   ?
_diffrn_detector                  ?
_diffrn_detector_type             ?       # make or model of detector

_pd_meas_scan_method              ?       # options are 'step', 'cont',
                                          # 'tof', 'fixed' or
                                          # 'disp' (= dispersive)
_pd_meas_special_details
;  ?
;

# The following two items identify the program(s) used (if appropriate).
_computing_data_collection        ?
_computing_data_reduction         ?

# Describe any processing performed on the data, prior to refinement.
# For example: a manual Lp correction or a precomputed absorption correction
_pd_proc_info_data_reduction      ?

# The following item is used for angular dispersive measurements only.

_diffrn_radiation_monochromator   ?

# The following items are used to define the size of the instrument.
# Not all distances are appropriate for all instrument types.

_pd_instr_dist_src/mono           ?
_pd_instr_dist_mono/spec          ?
_pd_instr_dist_src/spec           ?
_pd_instr_dist_spec/anal          ?
_pd_instr_dist_anal/detc          ?
_pd_instr_dist_spec/detc          ?

# 10. Specimen size and mounting information

# The next three fields give the specimen dimensions in mm.  The equatorial
# plane contains the incident and diffracted beam.

_pd_spec_size_axial               ?       # perpendicular to
                                          # equatorial plane

_pd_spec_size_equat               ?       # parallel to
                                          # scattering vector
                                          # in transmission

_pd_spec_size_thick               ?       # parallel to
                                          # scattering vector
                                          # in reflection

_pd_spec_mounting                         # This field should be
                                          # used to give details of the
                                          # container.
; ?
;

_pd_spec_mount_mode               ?       # options are 'reflection'
                                          # or 'transmission'

_pd_spec_shape                    ?       # options are 'cylinder'
                                          # 'flat_sheet' or 'irregular'

# phase table
loop_     _pd_phase_id
          _pd_phase_block_id
          _pd_phase_mass_%
          _pd_proc_ls_profile_function
          _pd_proc_ls_peak_cutoff
  1  2002-12-22T17:32|NISI_phase1|Brian_H._Toby||
            51(49)
;
 TOF Profile function number 1 with  12 terms
 Profile coefficients for Von Dreele,
 Jorgensen & Windsor convolution function
  J. Appl. Cryst., 15,581-589(1982)
  Modified by Von Dreele - unpublished (1983).
 #1(alp-0) =   0.0000 #3(bet-0) =   5.5766E-02 #5(sig-0) =      0.286
 #2(alp-1) =   0.1374 #4(bet-1) =   1.3723E-03 #6(sig-1) =     49.963
 #8(rstr ) =    0.000 #9(rsta ) =        0.000 #7(sig-2) =     -4.490
 #10(rsca) =    0.000 #11(s1ec) =         0.00 #12(s2ec) =       4.95
 Peak tails are ignored  where the intensity is below 0.0050 times the peak
   Aniso. broadening axis   0.0   0.0   1.0
;
           0.00500
  2  2002-12-22T17:32|NISI_phase2|Brian_H._Toby||
            49(49)
;
 TOF Profile function number 1 with  12 terms
 Profile coefficients for Von Dreele,
 Jorgensen & Windsor convolution function
  J. Appl. Cryst., 15,581-589(1982)
  Modified by Von Dreele - unpublished (1983).
 #1(alp-0) =   0.0000 #3(bet-0) =   5.5766E-02 #5(sig-0) =      1.267
 #2(alp-1) =   0.1374 #4(bet-1) =   1.3723E-03 #6(sig-1) =     10.000
 #8(rstr ) =    0.000 #9(rsta ) =        0.000 #7(sig-2) =      0.000
 #10(rsca) =    0.000 #11(s1ec) =         0.00 #12(s2ec) =       0.00
 Peak tails are ignored  where the intensity is below 0.0050 times the peak
   Aniso. broadening axis   0.0   0.0   1.0
;
           0.00500

loop_ _atom_type_symbol
      _atom_type_scat_length_neutron
      _atom_type_scat_source
  NI   1.0300
  International_Tables_Vol_C
  SI   0.4149
  International_Tables_Vol_C
_diffrn_radiation_probe                neutron
_pd_proc_ls_prof_R_factor              0.0272
_pd_proc_ls_prof_wR_factor             0.0384
_pd_proc_ls_prof_wR_expected           0.0294
_refine_ls_R_Fsqd_factor               0.07288

_pd_proc_ls_background_function
;   GSAS Background function number 2 with  6 terms.
 Cosine Fourier series
      1:   0.257511     2:  -5.126050E-02 3:  -0.106891     4:  -7.253230E-02
      5:  -4.390250E-02 6:  -1.267150E-02
;

_exptl_absorpt_process_details
;   GSAS Absorption/surface roughness correction: function number 0
 Debye-Scherrer absorption correction
Term (= MU.r/wave) =     0.24308E-01
Correction is refined.
;
_exptl_absorpt_correction_T_min        0.89986
_exptl_absorpt_correction_T_max        0.96223
# Extinction correction
_gsas_exptl_extinct_corr_T_min         1.00000
_gsas_exptl_extinct_corr_T_max         1.00000
_pd_proc_info_datetime                 2002-12-22T17:32:19
_pd_calc_method                        "Rietveld Refinement"
_pd_meas_2theta_fixed                  148.29

#---- raw data loop -----

loop_ _pd_meas_time_of_flight
      _pd_meas_intensity_total
      _pd_meas_point_id
      1000.0   1818(34)     626
      1001.6   1810(34)     627
      1003.2   1808(34)     628
      8187.2  13.1(29)    5118
      8188.8  13.8(29)    5119
      8190.4  11.2(27)    5120
_pd_meas_number_of_points              6

#---- calculated data loop -----

loop_
      _pd_proc_d_spacing
      _pd_proc_intensity_total
      _pd_proc_ls_weight
      _pd_proc_intensity_bkg_calc
      _pd_calc_intensity_total
      _pd_proc_point_id
   0.50035    0.424(7)    19401.    0.3726    0.4155        1
   0.50090    0.413(7)    19904.    0.3726    0.4059        2
   0.50145    0.413(7)    19881.    0.3725    0.3976        3
   1.40452    0.215(30)   1086.     0.2432    0.2432     1646
   1.40507    0.232(32)   1002.     0.2432    0.2432     1647
   1.40562    0.195(29)   1196.     0.2432    0.2432     1648
_pd_proc_number_of_points              6

loop_
      _refln_index_h
      _refln_index_k
      _refln_index_l
      _pd_refln_phase_id
      _refln_observed_status
      _refln_F_squared_meas
      _refln_F_squared_calc
      _refln_phase_calc
      _refln_d_spacing
      _gsas_i100_meas
   4   0   0  2 o   9.773   9.812  180.00   1.35739  11.88
   3   3   1  2 o   4.799   4.801   0.00    1.24563  16.69
   2   2   0  1 o  15.254  15.195   0.00    1.24572  96.38
   4   2   2  2 o   9.070   9.260   0.00    1.10831  19.98
   3   1   1  1 o  14.752  14.576   0.00    1.06236 100.00
   3   3   3  2 o   4.808   4.531   0.00    1.04492   2.80
   5   1   1  2 o   4.808   4.531   0.00    1.04492   8.41
   2   2   2  1 o  14.685  14.376   0.00    1.01713  27.98
   4   4   0  2 o   8.118   8.739   0.00    0.95982   5.09
   5   3   1  2 o   3.801   4.276   0.00    0.91777   7.99
   4   4   2  2 o   0.000   0.000  180.00   0.90493   0.00
   4   0   0  1 o  13.858  13.601   0.00    0.88086  11.26
   6   2   0  2 o   8.658   8.248   0.00    0.85849   7.00
   5   3   3  2 o   4.493   4.035  180.00   0.82800   3.15
   6   2   2  2 o   0.000   0.000  180.00   0.81854   0.00
   3   3   1  1 o  12.984  13.048   0.00    0.80833  30.09
   4   2   0  1 o  12.898  12.869   0.00    0.78786  27.01
   4   4   4  2 o   8.561   7.784  180.00   0.78369   1.61
   5   5   1  2 o   4.169   3.808  180.00   0.76029   2.09
   7   1   1  2 o   4.169   3.808   0.00    0.76029   2.09
   6   4   2  2 o   7.154   7.346  180.00   0.72556   5.96
   4   2   2  1 o  11.955  12.175   0.00    0.71922  17.48
   5   5   3  2 o   3.795   3.594  180.00   0.70687   1.43
   7   3   1  2 o   3.795   3.594  180.00   0.70687   2.85
   8   0   0  2 o   6.900   6.932   0.00    0.67870   0.55
   3   3   3  1 o  11.631  11.680   0.00    0.67809   4.49
   5   1   1  1 o  11.631  11.680   0.00    0.67809  13.48
   7   3   3  2 o   3.048   3.392  180.00   0.66333   0.89
   6   4   4  2 o   0.003   0.000   0.00    0.65843   0.00
   6   6   0  2 o   4.818   6.542  180.00   0.63988   0.61
   8   2   2  2 o   4.818   6.542  180.00   0.63988   1.22
   7   5   1  2 o   2.488   3.201  180.00   0.62695   1.17
   5   5   5  2 o   2.488   3.201   0.00    0.62695   0.19
   4   4   0  1 o   9.780  10.899   0.00    0.62286   4.05
   6   6   2  2 o   0.000   0.000   0.00    0.62281   0.00
   8   4   0  2 o   7.375   6.174  180.00   0.60704   1.52
   7   5   3  2 o   3.112   3.021   0.00    0.59597   1.19
   9   1   1  2 o   3.112   3.021  180.00   0.59597   0.60
   5   3   1  1 o  10.791  10.455   0.00    0.59557  14.98
   8   4   2  2 o   0.000   0.000   0.00    0.59241   0.00
   6   0   0  1 o  11.038  10.312   0.00    0.58724   1.81
   4   4   2  1 o  11.038  10.311   0.00    0.58724   7.25
   6   6   4  2 o   7.223   5.827   0.00    0.57879   1.23
   9   3   1  2 o   3.159   2.851  180.00   0.56917   1.01
   6   2   0  1 o   9.679   9.756   0.00    0.55710   5.16
   8   4   4  2 o   5.944   5.499   0.00    0.55415   0.85
   7   5   5  2 o   2.868   2.691   0.00    0.54569   0.39
   9   3   3  2 o   2.868   2.691   0.00    0.54569   0.39
   7   7   1  2 o   2.868   2.691   0.00    0.54569   0.39
   5   3   3  1 o   9.365   9.359   0.00    0.53732   4.33
  10   2   0  2 o   5.157   5.190  180.00   0.53241   0.63
   8   6   2  2 o   5.157   5.190   0.00    0.53241   1.27
   6   2   2  1 o   9.037   9.230   0.00    0.53118   3.99
   9   5   1  2 o   2.195   2.539   0.00    0.52490   0.51
   7   7   3  2 o   2.195   2.539   0.00    0.52490   0.25
  10   2   2  2 o   0.000   0.000   0.00    0.52246   0.00
   6   6   6  2 o   0.000   0.000   0.00    0.52246   0.00
   4   4   4  1 o   7.498   8.733   0.00    0.50856   0.93
   9   5   3  2 o   2.350   2.396   0.00    0.50631   0.47
   8   6   4  2 o   0.000   0.000  180.00   0.50412   0.00
_reflns_number_observed                60
_reflns_limit_h_min                    1
_reflns_limit_h_max                    11
_reflns_limit_k_min                    0
_reflns_limit_k_max                    7
_reflns_limit_l_min                    0
_reflns_limit_l_max                    6
_reflns_d_resolution_high              0.504
_reflns_d_resolution_low               1.357

# Powder diffraction data for histogram  2
data_NISI_p_02

_pd_block_id
  2002-12-22T17:32|NISI_H_02|Brian_H._Toby|GPD
#==============================================================================
# 9. INSTRUMENT CHARACTERIZATION

_exptl_special_details
; ?
;

# if regions of the data are excluded, the reason(s) are supplied here:
_pd_proc_info_excluded_regions
; ?
;

# The following item is used to identify the equipment used to record
# the powder pattern when the diffractogram was measured at a laboratory
# other than the authors' home institution, e.g. when neutron or synchrotron
# radiation is used.

_pd_instr_location
; ?
;
_pd_calibration_special_details           # description of the method used
                                          # to calibrate the instrument
; ?
;

_diffrn_ambient_temperature       ?
_diffrn_source                    ?
_diffrn_source_target             ?
_diffrn_source_type               ?
_diffrn_measurement_device_type   ?
_diffrn_detector                  ?
_diffrn_detector_type             ?       # make or model of detector

_pd_meas_scan_method              ?       # options are 'step', 'cont',
                                          # 'tof', 'fixed' or
                                          # 'disp' (= dispersive)
_pd_meas_special_details
;  ?
;

# The following two items identify the program(s) used (if appropriate).
_computing_data_collection        ?
_computing_data_reduction         ?

# Describe any processing performed on the data, prior to refinement.
# For example: a manual Lp correction or a precomputed absorption correction
_pd_proc_info_data_reduction      ?

# The following item is used for angular dispersive measurements only.

_diffrn_radiation_monochromator   ?

# The following items are used to define the size of the instrument.
# Not all distances are appropriate for all instrument types.

_pd_instr_dist_src/mono           ?
_pd_instr_dist_mono/spec          ?
_pd_instr_dist_src/spec           ?
_pd_instr_dist_spec/anal          ?
_pd_instr_dist_anal/detc          ?
_pd_instr_dist_spec/detc          ?

# 10. Specimen size and mounting information

# The next three fields give the specimen dimensions in mm.  The equatorial
# plane contains the incident and diffracted beam.

_pd_spec_size_axial               ?       # perpendicular to
                                          # equatorial plane

_pd_spec_size_equat               ?       # parallel to
                                          # scattering vector
                                          # in transmission

_pd_spec_size_thick               ?       # parallel to
                                          # scattering vector
                                          # in reflection

_pd_spec_mounting                         # This field should be
                                          # used to give details of the
                                          # container.
; ?
;

_pd_spec_mount_mode               ?       # options are 'reflection'
                                          # or 'transmission'

_pd_spec_shape                    ?       # options are 'cylinder'
                                          # 'flat_sheet' or 'irregular'

# phase table
loop_     _pd_phase_id
          _pd_phase_block_id
          _pd_phase_mass_%
          _pd_proc_ls_profile_function
          _pd_proc_ls_peak_cutoff
  1  2002-12-22T17:32|NISI_phase1|Brian_H._Toby||
           51.38
;
 TOF Profile function number 1 with  12 terms
 Profile coefficients for Von Dreele,
 Jorgensen & Windsor convolution function
  J. Appl. Cryst., 15,581-589(1982)
  Modified by Von Dreele - unpublished (1983).
 #1(alp-0) =   0.0000 #3(bet-0) =   5.5766E-02 #5(sig-0) =      2.422
 #2(alp-1) =   0.1428 #4(bet-1) =   3.4450E-03 #6(sig-1) =     71.488
 #8(rstr ) =    0.000 #9(rsta ) =        0.000 #7(sig-2) =     14.951
 #10(rsca) =    0.000 #11(s1ec) =         0.00 #12(s2ec) =       0.00
 Peak tails are ignored  where the intensity is below 0.0050 times the peak
   Aniso. broadening axis   0.0   0.0   1.0
;
           0.00500
  2  2002-12-22T17:32|NISI_phase2|Brian_H._Toby||
           48.62(28)
;
 TOF Profile function number 1 with  12 terms
 Profile coefficients for Von Dreele,
 Jorgensen & Windsor convolution function
  J. Appl. Cryst., 15,581-589(1982)
  Modified by Von Dreele - unpublished (1983).
 #1(alp-0) =   0.0000 #3(bet-0) =   5.5766E-02 #5(sig-0) =      0.208
 #2(alp-1) =   0.1428 #4(bet-1) =   3.4450E-03 #6(sig-1) =     57.992
 #8(rstr ) =    0.000 #9(rsta ) =        0.000 #7(sig-2) =      0.000
 #10(rsca) =    0.000 #11(s1ec) =         0.00 #12(s2ec) =       0.00
 Peak tails are ignored  where the intensity is below 0.0050 times the peak
   Aniso. broadening axis   0.0   0.0   1.0
;
           0.00500

loop_ _atom_type_symbol
      _atom_type_scat_length_neutron
      _atom_type_scat_source
  NI   1.0300
  International_Tables_Vol_C
  SI   0.4149
  International_Tables_Vol_C
_diffrn_radiation_probe                neutron
_pd_proc_ls_prof_R_factor              0.0270
_pd_proc_ls_prof_wR_factor             0.0363
_pd_proc_ls_prof_wR_expected           0.0222
_refine_ls_R_Fsqd_factor               0.07645

_pd_proc_ls_background_function
;   GSAS Background function number 4 with  4 terms.
 Power series in Q**2n/n!
      1:   0.254241     2:   1.830450E-03 3:  -1.977130E-05 4:   1.556390E-07
;

_exptl_absorpt_process_details
;   GSAS Absorption/surface roughness correction: function number 0
 Debye-Scherrer absorption correction
Term (= MU.r/wave) =     0.24308E-01
Correction is refined.
;
_exptl_absorpt_correction_T_min        0.90482
_exptl_absorpt_correction_T_max        0.97471
# Extinction correction
_gsas_exptl_extinct_corr_T_min         1.00000
_gsas_exptl_extinct_corr_T_max         1.00000
_pd_proc_info_datetime                 2002-12-22T17:32:19
_pd_calc_method                        "Rietveld Refinement"
_pd_meas_2theta_fixed                  88.05

#---- raw data loop -----

loop_ _pd_meas_time_of_flight
      _pd_meas_intensity_total
      _pd_meas_point_id
      750.4   2780(42)     470
      752.0   2776(42)     471
      753.6   2775(42)     472
      8187.2   29(4)    5118
      8188.8   30(4)    5119
      8190.4   21(4)    5120
_pd_meas_number_of_points              6

#---- calculated data loop -----

loop_
      _pd_proc_d_spacing
      _pd_proc_intensity_total
      _pd_proc_ls_weight
      _pd_proc_intensity_bkg_calc
      _pd_calc_intensity_total
      _pd_proc_point_id
   0.45802    0.778(9)    12931.    0.4211    0.7851        1
   0.45875    0.880(9)    11421.    0.4206    0.8992        2
   0.45949    0.890(9)    11288.    0.4201    0.9062        3
   1.87161    0.296(33)   937.      0.2736    0.2736     1931
   1.87235    0.250(30)   1108.     0.2736    0.2736     1932
   1.87308    0.279(32)   988.      0.2736    0.2736     1933
_pd_proc_number_of_points              6

loop_
      _refln_index_h
      _refln_index_k
      _refln_index_l
      _pd_refln_phase_id
      _refln_observed_status
      _refln_F_squared_meas
      _refln_F_squared_calc
      _refln_phase_calc
      _refln_d_spacing
      _gsas_i100_meas
   2   0   0  1 o  16.505  16.060   0.00    1.76172 100.00
   3   1   1  2 o   4.854   5.087  180.00   1.63708  23.87
   2   2   2  2 o   0.000   0.000   0.00    1.56738   0.00
   4   0   0  2 o  10.301   9.812  180.00   1.35739   6.08
   2   2   0  1 o  15.566  15.195   0.00    1.24572  48.55
   3   3   1  2 o   4.948   4.801   0.00    1.24563   8.34
   4   2   2  2 o   9.626   9.260   0.00    1.10831  10.25
   3   1   1  1 o  14.502  14.576   0.00    1.06236  48.34
   3   3   3  2 o   5.035   4.531   0.00    1.04492   1.42
   5   1   1  2 o   5.035   4.531   0.00    1.04492   4.25
   2   2   2  1 o  14.310  14.376   0.00    1.01713  13.40
   4   4   0  2 o   6.413   8.739   0.00    0.95982   1.94
   5   3   1  2 o   3.469   4.276   0.00    0.91777   3.51
   4   4   2  2 o   0.000   0.000  180.00   0.90493   0.00
   4   0   0  1 o  11.889  13.601   0.00    0.88086   4.73
   6   2   0  2 o   7.467   8.248   0.00    0.85849   2.90
   5   3   3  2 o   4.561   4.035  180.00   0.82800   1.54
   6   2   2  2 o   0.000   0.000  180.00   0.81854   0.00
   3   3   1  1 o  13.161  13.048   0.00    0.80833  14.92
   4   2   0  1 o  13.187  12.869   0.00    0.78786  13.51
   4   4   4  2 o   8.605   7.784  180.00   0.78369   0.78
   7   1   1  2 o   4.230   3.808   0.00    0.76029   1.02
   5   5   1  2 o   4.230   3.808  180.00   0.76029   1.02
   6   4   2  2 o   7.902   7.346  180.00   0.72556   3.16
   4   2   2  1 o  12.553  12.175   0.00    0.71922   8.96
   5   5   3  2 o   4.123   3.594  180.00   0.70687   0.74
   7   3   1  2 o   4.123   3.594  180.00   0.70687   1.49
   8   0   0  2 o   6.871   6.932   0.00    0.67870   0.26
   5   1   1  1 o  11.586  11.680   0.00    0.67809   6.55
   3   3   3  1 o  11.586  11.680   0.00    0.67809   2.18
   7   3   3  2 o   2.673   3.392  180.00   0.66333   0.37
   6   4   4  2 o   0.000   0.000   0.00    0.65843   0.00
   8   2   2  2 o   4.805   6.542  180.00   0.63988   0.58
   6   6   0  2 o   4.805   6.542  180.00   0.63988   0.29
   7   5   1  2 o   2.783   3.201  180.00   0.62695   0.62
   5   5   5  2 o   2.783   3.201   0.00    0.62695   0.10
   4   4   0  1 o  10.812  10.899   0.00    0.62286   2.18
   6   6   2  2 o   0.000   0.000   0.00    0.62281   0.00
   8   4   0  2 o   7.883   6.174  180.00   0.60704   0.78
   7   5   3  2 o   3.033   3.021   0.00    0.59597   0.56
   9   1   1  2 o   3.033   3.021  180.00   0.59597   0.28
   5   3   1  1 o  10.538  10.455   0.00    0.59557   7.13
   8   4   2  2 o   0.000   0.000   0.00    0.59241   0.00
   4   4   2  1 o  10.868  10.311   0.00    0.58724   3.48
   6   0   0  1 o  10.868  10.312   0.00    0.58724   0.87
   6   6   4  2 o   7.512   5.827   0.00    0.57879   0.61
   9   3   1  2 o   3.446   2.851  180.00   0.56917   0.53
   6   2   0  1 o   9.222   9.756   0.00    0.55710   2.39
   8   4   4  2 o   5.846   5.499   0.00    0.55415   0.40
   7   5   5  2 o   2.885   2.691   0.00    0.54569   0.19
   9   3   3  2 o   2.885   2.691   0.00    0.54569   0.19
   7   7   1  2 o   2.885   2.691   0.00    0.54569   0.19
   5   3   3  1 o   8.949   9.359   0.00    0.53732   2.01
   8   6   2  2 o   5.051   5.190   0.00    0.53241   0.59
  10   2   0  2 o   5.051   5.190  180.00   0.53241   0.30
   6   2   2  1 o   9.139   9.230   0.00    0.53118   1.96
   7   7   3  2 o   2.340   2.539   0.00    0.52490   0.13
   9   5   1  2 o   2.340   2.539   0.00    0.52490   0.26
  10   2   2  2 o   0.000   0.000   0.00    0.52246   0.00
   6   6   6  2 o   0.000   0.000   0.00    0.52246   0.00
   9   5   3  2 o   2.073   2.396   0.00    0.50631   0.20
   4   4   4  1 o   6.131   8.733   0.00    0.50856   0.37
   8   6   4  2 o   0.000   0.000  180.00   0.50412   0.00
  10   4   2  2 o   4.200   4.622   0.00    0.49565   0.37
   7   1   1  1 o   8.012   8.378   0.00    0.49338   1.28
   5   5   1  1 o   8.012   8.378   0.00    0.49338   1.28
  11   1   1  2 o   2.295   2.261  180.00   0.48957   0.10
   7   7   5  2 o   2.295   2.261  180.00   0.48957   0.10
   6   4   0  1 o   8.872   8.263   0.00    0.48861   1.37
   8   8   0  2 o   6.891   4.362   0.00    0.47991   0.13
   9   7   1  2 o   2.182   2.134   0.00    0.47438   0.16
   9   5   5  2 o   2.182   2.134  180.00   0.47438   0.08
  11   3   1  2 o   2.182   2.134   0.00    0.47438   0.16
  10   4   4  2 o   0.000   0.000  180.00   0.47258   0.00
   8   8   2  2 o   0.000   0.000  180.00   0.47258   0.00
   6   4   2  1 o   8.182   7.817   0.00    0.47084   2.18
   8   6   6  2 o   4.821   4.117  180.00   0.46558   0.17
  10   6   0  2 o   4.821   4.117   0.00    0.46558   0.17
   9   7   3  2 o   1.948   2.014  180.00   0.46053   0.13
  11   3   3  2 o   1.948   2.014   0.00    0.46053   0.06
  10   6   2  2 o   0.000   0.000   0.00    0.45888   0.00
   7   3   1  1 o   7.261   7.499   0.00    0.45871   1.74
   5   5   3  1 o   7.261   7.499   0.00    0.45871   0.87
_reflns_number_observed                83
_reflns_limit_h_min                    1
_reflns_limit_h_max                    12
_reflns_limit_k_min                    0
_reflns_limit_k_max                    8
_reflns_limit_l_min                    0
_reflns_limit_l_max                    7
_reflns_d_resolution_high              0.459
_reflns_d_resolution_low               1.762
#--eof--eof--eof--eof--eof--eof--eof--eof--eof--eof--eof--eof--eof--eof--eof--#
